2021-06-10T00:00:00.883030-04:00 p0199 XALT_LOGGING_pitzer: V:4 kind:run nb:13 syshost:pitzer key:run_fini_050c3db9-2742-4699-8346-179b5cc4d76c crc:0x09C1 idx:0 value:{"crc":"0x09C1","cmdlineA":["/users/PCS0202/bgs0373/PROGRAM/OpenMolcas-master/build/bin/mclr.exe"],"hash_id":"ef559987eb6a7020c0cd236a4beac6fbcc307131","libA":[["/usr/lib64/ld-2.17.so","0"],["/opt/intel/17.0.7/compilers_and_libraries_2017.7.259/linux/mpi/intel64/lib/libmpifort.so.12.0","0"],["/opt/intel/17.0.7/compilers_and_libraries_2017.7.259/linux/mpi/intel64/lib/release_mt/libmpi.so.12.0","0"],["/usr/lib64/libdl-2.17.so","0"],["/usr/lib64/librt-2.17.so","0"],["/usr/lib64/libpthread-2.17.so","0"],["/apps
2021-06-10T00:00:00.885413-04:00 p0199 XALT_LOGGING_pitzer: V:4 kind:run nb:13 syshost:pitzer key:run_fini_050c3db9-2742-4699-8346-179b5cc4d76c crc:0x09C1 idx:1 value:/python/3.6-conda5.2/lib/libhdf5.so.101.1.0","0"],["/apps/python/3.6-conda5.2/lib/libz.so.1.2.11","0"],["/usr/lib64/libm-2.17.so","0"],["/opt/intel/17.0.7/compilers_and_libraries_2017.7.259/linux/mkl/lib/intel64_lin/libmkl_scalapack_ilp64.so","0"],["/opt/intel/17.0.7/compilers_and_libraries_2017.7.259/linux/mkl/lib/intel64_lin/libmkl_intel_ilp64.so","0"],["/opt/intel/17.0.7/compilers_and_libraries_2017.7.259/linux/mkl/lib/intel64_lin/libmkl_core.so","0"],["/opt/intel/17.0.7/compilers_and_libraries_2017.7.25
2021-06-10T00:00:00.887304-04:00 p0199 XALT_LOGGING_pitzer: V:4 kind:run nb:13 syshost:pitzer key:run_fini_050c3db9-2742-4699-8346-179b5cc4d76c crc:0x09C1 idx:2 value:9/linux/mkl/lib/intel64_lin/libmkl_sequential.so","0"],["/opt/intel/17.0.7/compilers_and_libraries_2017.7.259/linux/mkl/lib/intel64_lin/libmkl_blacs_intelmpi_ilp64.so","0"],["/opt/intel/17.0.7/compilers_and_libraries_2017.7.259/linux/compiler/lib/intel64_lin/libirng.so","0"],["/apps/gnu/7.3.0/lib64/libcilkrts.so.5.0.0","0"],["/apps/gnu/7.3.0/lib64/libstdc++.so.6.0.24","0"],["/opt/intel/17.0.7/compilers_and_libraries_2017.7.259/linux/mpi/intel64/lib/libmpi_ilp64.so.4.1","0"],["/usr/lib64/libc-2.17.so","0"],[
2021-06-10T00:00:00.889162-04:00 p0199 XALT_LOGGING_pitzer: V:4 kind:run nb:13 syshost:pitzer key:run_fini_050c3db9-2742-4699-8346-179b5cc4d76c crc:0x09C1 idx:3 value:"/apps/gnu/7.3.0/lib64/libgcc_s.so.1","0"],["/opt/intel/17.0.7/compilers_and_libraries_2017.7.259/linux/compiler/lib/intel64_lin/libintlc.so.5","0"],["/apps/xalt/2.10.10/lib64/libuuid.so.1.3.0","0"],["/opt/intel/17.0.7/compilers_and_libraries_2017.7.259/linux/mkl/lib/intel64_lin/libmkl_avx512.so","0"]],"ptA":[{"cmd_name":"pymolcas","cmd_path":"/apps/python/3.6-conda5.2/bin/python3.6","pid":229329,"cmdlineA":["/apps/python/3.6-conda5.2/bin/python3","/users/PCS0202/bgs0373/PROGRAM/OpenMolcas-master/build/bin/
2021-06-10T00:00:00.891100-04:00 p0199 XALT_LOGGING_pitzer: V:4 kind:run nb:13 syshost:pitzer key:run_fini_050c3db9-2742-4699-8346-179b5cc4d76c crc:0x09C1 idx:4 value:pymolcas","/users/PCS0202/bgs0454/Work/new_switchs/ester_phenate_switch/ester_phenate_sw/GS_Dynamics/ES_dyna/2-root-trajs/geom060/geom060.input"]},{"cmd_name":"slurm_script","cmd_path":"/usr/bin/bash","pid":229135,"cmdlineA":["/bin/bash","/var/spool/slurmd/job4305288/slurm_script"]}],"envT":{"LD_LIBRARY_PATH":"/users/PCS0202/bgs0373/PROGRAM/OpenMolcas-master/build/lib:/opt/intel/17.0.7/impi/2017.4.259/lib64:/apps/gnu/7.3.0/lib64:/apps/gnu/7.3.0/lib:/opt/intel/17.0.7/debugger_2017/libipt/intel64/lib:/opt/int
2021-06-10T00:00:00.893140-04:00 p0199 XALT_LOGGING_pitzer: V:4 kind:run nb:13 syshost:pitzer key:run_fini_050c3db9-2742-4699-8346-179b5cc4d76c crc:0x09C1 idx:5 value:el/17.0.7/compilers_and_libraries_2017/linux/lib/intel64_lin:/opt/intel/17.0.7/compilers_and_libraries_2017/linux/daal/lib/intel64_lin:/opt/intel/17.0.7/compilers_and_libraries_2017/linux/ipp/lib/intel64_lin:/opt/intel/17.0.7/compilers_and_libraries_2017/linux/mkl/lib/intel64_lin:/opt/intel/17.0.7/compilers_and_libraries_2017/linux/tbb/lib/intel64_lin/gcc4.4:/apps/python/3.6-conda5.2/lib","PATH":"/apps/xalt/xalt/bin:/opt/intel/17.0.7/impi/2017.4.259/bin64:/apps/gnu/7.3.0/bin:/opt/intel/17.0.7/itac_latest/bi
2021-06-10T00:00:00.894578-04:00 p0199 XALT_LOGGING_pitzer: V:4 kind:run nb:13 syshost:pitzer key:run_fini_050c3db9-2742-4699-8346-179b5cc4d76c crc:0x09C1 idx:6 value:n:/opt/intel/17.0.7/advisor/bin64:/opt/intel/17.0.7/vtune_amplifier/bin64:/opt/intel/17.0.7/inspector_2017/bin64:/opt/intel/17.0.7/compilers_and_libraries_2017/linux/bin/intel64:/apps/python/3.6-conda5.2/bin:/apps/software_usage:/usr/lib64/qt-3.3/bin:/opt/osc/bin:/opt/moab/bin:/usr/local/bin:/usr/bin:/usr/local/sbin:/usr/sbin:/opt/ibutils/bin:/opt/ddn/ime/bin:/opt/puppetlabs/bin:/users/PCS0202/bgs0374/Programs/Dice/dice/bin:/users/PCS0202/bgs0374/bin/Python-2.7:/users/PCS0202/bgs0374/bin/dowser/bin:/users/P
2021-06-10T00:00:00.896175-04:00 p0199 XALT_LOGGING_pitzer: V:4 kind:run nb:13 syshost:pitzer key:run_fini_050c3db9-2742-4699-8346-179b5cc4d76c crc:0x09C1 idx:7 value:CS0202/bgs0374/bin/dowser/bin/linux:/users/PCS0202/bgs0374/Programs/modeller9.12/bin:/users/PCS0202/bgs0361/bin/scwrl4:/users/PCS0202/bgs0374/Programs/vmd-1.9.1/bin:/users/PCS0202/bgs0374/bin/bin:/usr/local/fftw3/intel/16.0/mvapich2/2.2rc1/3.3.4/lib","_LMFILES_":"/apps/lmodfiles/Core/xalt/latest.lua:/apps/lmodfiles/Core/modules/sp2020.lua:/apps/lmodfiles/Core/python/3.6-conda5.2.lua:/apps/lmodfiles/Compiler/intel/17.0/cxx17/7.3.0.lua:/apps/lmodfiles/Core/intel/17.0.7.lua:/apps/lmodfiles/Compiler/intel/17.0/
2021-06-10T00:00:00.897698-04:00 p0199 XALT_LOGGING_pitzer: V:4 kind:run nb:13 syshost:pitzer key:run_fini_050c3db9-2742-4699-8346-179b5cc4d76c crc:0x09C1 idx:8 value:intelmpi/2017.4.lua","MODULEPATH":"/apps/lmodfiles/MPI/intel/17.0/intelmpi/2017.4:/apps/lmodfiles/Compiler/intel/17.0:/apps/lmodfiles/Linux:/apps/lmodfiles/Core:/apps/lmod/lmod/modulefiles/Core","LOADEDMODULES":"xalt/latest:modules/sp2020:python/3.6-conda5.2:cxx17/7.3.0:intel/17.0.7:intelmpi/2017.4","PYTHONPATH":"/users/PCS0202/bgs0374/Programs/modeller9.12/modlib:/users/PCS0202/bgs0374/Programs/modeller9.12/lib/x86_64-intel8","PYTHON_HOME":"/apps/python/3.6-conda5.2"},"userT":{"syshost":"pitzer","run_uuid"
2021-06-10T00:00:00.899274-04:00 p0199 XALT_LOGGING_pitzer: V:4 kind:run nb:13 syshost:pitzer key:run_fini_050c3db9-2742-4699-8346-179b5cc4d76c crc:0x09C1 idx:9 value::"050c3db9-2742-4699-8346-179b5cc4d76c","exec_path":"/users/PCS0202/bgs0373/PROGRAM/OpenMolcas-master/build/bin/mclr.exe","exec_type":"binary","cwd":"/tmp/slurmtmp.4305288","currentEpoch":"1623297600.880664","start_date":"Wed Jun  9 23:53:58 2021","user":"bgs0454","execModify":"Fri Jul  3 00:34:39 2020","scheduler":"SLURM","account":"pcon0010","job_id":"4305288","queue":"condo-olivucci-serial","submit_host":"pitzer-login01.hpc.osc.edu"},"userDT":{"Build_Epoch":1593750873.4508,"start_time":1623297238.9347,"e
2021-06-10T00:00:00.901156-04:00 p0199 XALT_LOGGING_pitzer: V:4 kind:run nb:13 syshost:pitzer key:run_fini_050c3db9-2742-4699-8346-179b5cc4d76c crc:0x09C1 idx:10 value:nd_time":1623297600.8793,"run_time":361.9446,"probability":1.0000,"num_tasks":1.0000,"num_gpus":0.0000,"exec_epoch":1623297238.0000,"num_threads":1.0000,"num_cores":1.0000,"num_nodes":1.0000},"xaltLinkT":{"XALT_Version":"2.7.2","Build_host":"pitzer-login03.hpc.osc.edu","Build_Syshost":"pitzer","Build_compiler":"ifort","Build_compilerPath":"/opt/intel/17.0.7/compilers_and_libraries_2017.7.259/linux/bin/intel64/ifort","Build_OS":"Linux 3.10.0-1062.18.1.el7.x86_64","Build_User":"bgs0373","Build_UUID":"a5dc26cc
2021-06-10T00:00:00.903006-04:00 p0199 XALT_LOGGING_pitzer: V:4 kind:run nb:13 syshost:pitzer key:run_fini_050c3db9-2742-4699-8346-179b5cc4d76c crc:0x09C1 idx:11 value:-e445-4239-916b-3176899c7243","Build_Year":"2020","Build_date":"Fri Jul 03 00:34:33 2020","Build_LOADEDMODULES":"xalt/latest:modules/sp2020:python/3.6-conda5.2:cxx17/7.3.0:intel/17.0.7:intelmpi/2017.4","Build_LMFILES":"/apps/lmodfiles/Core/xalt/latest.lua:/apps/lmodfiles/Core/modules/sp2020.lua:/apps/lmodfiles/Core/python/3.6-conda5.2.lua:/apps/lmodfiles/Compiler/intel/17.0/cxx17/7.3.0.lua:/apps/lmodfiles/Core/intel/17.0.7.lua:/apps/lmodfiles/Compiler/intel/17.0/intelmpi/2017.4.lua","Build_CWD":"/users/PCS0
2021-06-10T00:00:00.904486-04:00 p0199 XALT_LOGGING_pitzer: V:4 kind:run nb:13 syshost:pitzer key:run_fini_050c3db9-2742-4699-8346-179b5cc4d76c crc:0x09C1 idx:12 value:202/bgs0373/PROGRAM/OpenMolcas-master/build","Build_Epoch":"1593750873.4508"},"XALT_measureT":{"04_WalkProcTree__":0.0003,"03_BuildEnvT_____":0.0010,"05_Build_RecordT_":0.0000,"01_BuildUserT____":0.0004,"02_Sha1_exec_____":0.0000,"06_ParseProcMaps_":0.0005,"07_GPU_Setup_____":0.0000,"08____total______":0.0026},"XALT_qaT":{"XALT_GIT_VERSION":"xalt-2.10.10-3-g42b3703","XALT_FILE_PREFIX":"USE_HOME"}}
2021-06-10T00:00:01.935082-04:00 p0199 XALT_LOGGING_pitzer: V:4 kind:run nb:13 syshost:pitzer key:run_strt_0080406f-d161-4649-b545-485852e1f29f crc:0xC298 idx:0 value:{"crc":"0xC298","cmdlineA":["/users/PCS0202/bgs0373/PROGRAM/OpenMolcas-master/build/bin/alaska.exe"],"hash_id":"1696b16b3d1336e9aac79af0dc7740574edbdf88","libA":[["/usr/lib64/ld-2.17.so","0"],["/opt/intel/17.0.7/compilers_and_libraries_2017.7.259/linux/mpi/intel64/lib/libmpifort.so.12.0","0"],["/opt/intel/17.0.7/compilers_and_libraries_2017.7.259/linux/mpi/intel64/lib/release_mt/libmpi.so.12.0","0"],["/usr/lib64/libdl-2.17.so","0"],["/usr/lib64/librt-2.17.so","0"],["/usr/lib64/libpthread-2.17.so","0"],["/ap
2021-06-10T00:00:01.937542-04:00 p0199 XALT_LOGGING_pitzer: V:4 kind:run nb:13 syshost:pitzer key:run_strt_0080406f-d161-4649-b545-485852e1f29f crc:0xC298 idx:1 value:ps/python/3.6-conda5.2/lib/libhdf5.so.101.1.0","0"],["/apps/python/3.6-conda5.2/lib/libz.so.1.2.11","0"],["/usr/lib64/libm-2.17.so","0"],["/opt/intel/17.0.7/compilers_and_libraries_2017.7.259/linux/mkl/lib/intel64_lin/libmkl_scalapack_ilp64.so","0"],["/opt/intel/17.0.7/compilers_and_libraries_2017.7.259/linux/mkl/lib/intel64_lin/libmkl_intel_ilp64.so","0"],["/opt/intel/17.0.7/compilers_and_libraries_2017.7.259/linux/mkl/lib/intel64_lin/libmkl_core.so","0"],["/opt/intel/17.0.7/compilers_and_libraries_2017.7.
2021-06-10T00:00:01.939434-04:00 p0199 XALT_LOGGING_pitzer: V:4 kind:run nb:13 syshost:pitzer key:run_strt_0080406f-d161-4649-b545-485852e1f29f crc:0xC298 idx:2 value:259/linux/mkl/lib/intel64_lin/libmkl_sequential.so","0"],["/opt/intel/17.0.7/compilers_and_libraries_2017.7.259/linux/mkl/lib/intel64_lin/libmkl_blacs_intelmpi_ilp64.so","0"],["/opt/intel/17.0.7/compilers_and_libraries_2017.7.259/linux/compiler/lib/intel64_lin/libirng.so","0"],["/apps/gnu/7.3.0/lib64/libcilkrts.so.5.0.0","0"],["/apps/gnu/7.3.0/lib64/libstdc++.so.6.0.24","0"],["/opt/intel/17.0.7/compilers_and_libraries_2017.7.259/linux/mpi/intel64/lib/libmpi_ilp64.so.4.1","0"],["/usr/lib64/libc-2.17.so","0"]
2021-06-10T00:00:01.941299-04:00 p0199 XALT_LOGGING_pitzer: V:4 kind:run nb:13 syshost:pitzer key:run_strt_0080406f-d161-4649-b545-485852e1f29f crc:0xC298 idx:3 value:,["/apps/gnu/7.3.0/lib64/libgcc_s.so.1","0"],["/opt/intel/17.0.7/compilers_and_libraries_2017.7.259/linux/compiler/lib/intel64_lin/libintlc.so.5","0"],["/apps/xalt/2.10.10/lib64/libuuid.so.1.3.0","0"]],"ptA":[{"cmd_name":"pymolcas","cmd_path":"/apps/python/3.6-conda5.2/bin/python3.6","pid":229329,"cmdlineA":["/apps/python/3.6-conda5.2/bin/python3","/users/PCS0202/bgs0373/PROGRAM/OpenMolcas-master/build/bin/pymolcas","/users/PCS0202/bgs0454/Work/new_switchs/ester_phenate_switch/ester_phenate_sw/GS_Dynamics/E
2021-06-10T00:00:01.943503-04:00 p0199 XALT_LOGGING_pitzer: V:4 kind:run nb:13 syshost:pitzer key:run_strt_0080406f-d161-4649-b545-485852e1f29f crc:0xC298 idx:4 value:S_dyna/2-root-trajs/geom060/geom060.input"]},{"cmd_name":"slurm_script","cmd_path":"/usr/bin/bash","pid":229135,"cmdlineA":["/bin/bash","/var/spool/slurmd/job4305288/slurm_script"]}],"envT":{"LD_LIBRARY_PATH":"/users/PCS0202/bgs0373/PROGRAM/OpenMolcas-master/build/lib:/opt/intel/17.0.7/impi/2017.4.259/lib64:/apps/gnu/7.3.0/lib64:/apps/gnu/7.3.0/lib:/opt/intel/17.0.7/debugger_2017/libipt/intel64/lib:/opt/intel/17.0.7/compilers_and_libraries_2017/linux/lib/intel64_lin:/opt/intel/17.0.7/compilers_and_libraries
2021-06-10T00:00:01.945721-04:00 p0199 XALT_LOGGING_pitzer: V:4 kind:run nb:13 syshost:pitzer key:run_strt_0080406f-d161-4649-b545-485852e1f29f crc:0xC298 idx:5 value:_2017/linux/daal/lib/intel64_lin:/opt/intel/17.0.7/compilers_and_libraries_2017/linux/ipp/lib/intel64_lin:/opt/intel/17.0.7/compilers_and_libraries_2017/linux/mkl/lib/intel64_lin:/opt/intel/17.0.7/compilers_and_libraries_2017/linux/tbb/lib/intel64_lin/gcc4.4:/apps/python/3.6-conda5.2/lib","PATH":"/apps/xalt/xalt/bin:/opt/intel/17.0.7/impi/2017.4.259/bin64:/apps/gnu/7.3.0/bin:/opt/intel/17.0.7/itac_latest/bin:/opt/intel/17.0.7/advisor/bin64:/opt/intel/17.0.7/vtune_amplifier/bin64:/opt/intel/17.0.7/inspector_
2021-06-10T00:00:01.947559-04:00 p0199 XALT_LOGGING_pitzer: V:4 kind:run nb:13 syshost:pitzer key:run_strt_0080406f-d161-4649-b545-485852e1f29f crc:0xC298 idx:6 value:2017/bin64:/opt/intel/17.0.7/compilers_and_libraries_2017/linux/bin/intel64:/apps/python/3.6-conda5.2/bin:/apps/software_usage:/usr/lib64/qt-3.3/bin:/opt/osc/bin:/opt/moab/bin:/usr/local/bin:/usr/bin:/usr/local/sbin:/usr/sbin:/opt/ibutils/bin:/opt/ddn/ime/bin:/opt/puppetlabs/bin:/users/PCS0202/bgs0374/Programs/Dice/dice/bin:/users/PCS0202/bgs0374/bin/Python-2.7:/users/PCS0202/bgs0374/bin/dowser/bin:/users/PCS0202/bgs0374/bin/dowser/bin/linux:/users/PCS0202/bgs0374/Programs/modeller9.12/bin:/users/PCS0202/bg
2021-06-10T00:00:01.949320-04:00 p0199 XALT_LOGGING_pitzer: V:4 kind:run nb:13 syshost:pitzer key:run_strt_0080406f-d161-4649-b545-485852e1f29f crc:0xC298 idx:7 value:s0361/bin/scwrl4:/users/PCS0202/bgs0374/Programs/vmd-1.9.1/bin:/users/PCS0202/bgs0374/bin/bin:/usr/local/fftw3/intel/16.0/mvapich2/2.2rc1/3.3.4/lib","_LMFILES_":"/apps/lmodfiles/Core/xalt/latest.lua:/apps/lmodfiles/Core/modules/sp2020.lua:/apps/lmodfiles/Core/python/3.6-conda5.2.lua:/apps/lmodfiles/Compiler/intel/17.0/cxx17/7.3.0.lua:/apps/lmodfiles/Core/intel/17.0.7.lua:/apps/lmodfiles/Compiler/intel/17.0/intelmpi/2017.4.lua","MODULEPATH":"/apps/lmodfiles/MPI/intel/17.0/intelmpi/2017.4:/apps/lmodfiles/Comp
2021-06-10T00:00:01.951160-04:00 p0199 XALT_LOGGING_pitzer: V:4 kind:run nb:13 syshost:pitzer key:run_strt_0080406f-d161-4649-b545-485852e1f29f crc:0xC298 idx:8 value:iler/intel/17.0:/apps/lmodfiles/Linux:/apps/lmodfiles/Core:/apps/lmod/lmod/modulefiles/Core","LOADEDMODULES":"xalt/latest:modules/sp2020:python/3.6-conda5.2:cxx17/7.3.0:intel/17.0.7:intelmpi/2017.4","PYTHONPATH":"/users/PCS0202/bgs0374/Programs/modeller9.12/modlib:/users/PCS0202/bgs0374/Programs/modeller9.12/lib/x86_64-intel8","PYTHON_HOME":"/apps/python/3.6-conda5.2"},"userT":{"syshost":"pitzer","run_uuid":"0080406f-d161-4649-b545-485852e1f29f","exec_path":"/users/PCS0202/bgs0373/PROGRAM/OpenMolcas-master/
2021-06-10T00:00:01.953080-04:00 p0199 XALT_LOGGING_pitzer: V:4 kind:run nb:13 syshost:pitzer key:run_strt_0080406f-d161-4649-b545-485852e1f29f crc:0xC298 idx:9 value:build/bin/alaska.exe","exec_type":"binary","cwd":"/tmp/slurmtmp.4305288","currentEpoch":"1623297601.865608","start_date":"Thu Jun 10 00:00:01 2021","user":"bgs0454","execModify":"Fri Jul  3 00:33:05 2020","scheduler":"SLURM","account":"pcon0010","job_id":"4305288","queue":"condo-olivucci-serial","submit_host":"pitzer-login01.hpc.osc.edu"},"userDT":{"Build_Epoch":1593750783.6843,"start_time":1623297601.8449,"end_time":0.0000,"run_time":0.0000,"probability":1.0000,"num_tasks":1.0000,"num_gpus":0.0000,"exec_ep
2021-06-10T00:00:01.955086-04:00 p0199 XALT_LOGGING_pitzer: V:4 kind:run nb:13 syshost:pitzer key:run_strt_0080406f-d161-4649-b545-485852e1f29f crc:0xC298 idx:10 value:och":1623297601.0000,"num_threads":1.0000,"num_cores":1.0000,"num_nodes":1.0000},"xaltLinkT":{"XALT_Version":"2.7.2","Build_host":"pitzer-login03.hpc.osc.edu","Build_Syshost":"pitzer","Build_compiler":"ifort","Build_compilerPath":"/opt/intel/17.0.7/compilers_and_libraries_2017.7.259/linux/bin/intel64/ifort","Build_OS":"Linux 3.10.0-1062.18.1.el7.x86_64","Build_User":"bgs0373","Build_UUID":"667819cb-906e-4587-bc90-44efc4b31300","Build_Year":"2020","Build_date":"Fri Jul 03 00:33:03 2020","Build_LOADEDMODULES"
2021-06-10T00:00:01.957106-04:00 p0199 XALT_LOGGING_pitzer: V:4 kind:run nb:13 syshost:pitzer key:run_strt_0080406f-d161-4649-b545-485852e1f29f crc:0xC298 idx:11 value::"xalt/latest:modules/sp2020:python/3.6-conda5.2:cxx17/7.3.0:intel/17.0.7:intelmpi/2017.4","Build_LMFILES":"/apps/lmodfiles/Core/xalt/latest.lua:/apps/lmodfiles/Core/modules/sp2020.lua:/apps/lmodfiles/Core/python/3.6-conda5.2.lua:/apps/lmodfiles/Compiler/intel/17.0/cxx17/7.3.0.lua:/apps/lmodfiles/Core/intel/17.0.7.lua:/apps/lmodfiles/Compiler/intel/17.0/intelmpi/2017.4.lua","Build_CWD":"/users/PCS0202/bgs0373/PROGRAM/OpenMolcas-master/build","Build_Epoch":"1593750783.6843"},"XALT_measureT":{"04_WalkProcTree
2021-06-10T00:00:01.958878-04:00 p0199 XALT_LOGGING_pitzer: V:4 kind:run nb:13 syshost:pitzer key:run_strt_0080406f-d161-4649-b545-485852e1f29f crc:0xC298 idx:12 value:__":0.0003,"03_BuildEnvT_____":0.0009,"05_Build_RecordT_":0.0000,"01_BuildUserT____":0.0002,"02_Sha1_exec_____":0.0680,"06_ParseProcMaps_":0.0004,"07_GPU_Setup_____":0.0000,"08____total______":0.0889},"XALT_qaT":{"XALT_GIT_VERSION":"xalt-2.10.10-3-g42b3703","XALT_FILE_PREFIX":"USE_HOME"}}
2021-06-10T00:00:03.705422-04:00 p0109 XALT_LOGGING_pitzer: V:4 kind:run nb:60 syshost:pitzer key:run_fini_d146d2d6-e2ba-40f3-a35b-4818c2650ec9 crc:0xCD98 idx:0 value:{"crc":"0xCD98","cmdlineA":["/fs/project/PAS1117/Cronin/Bioinformatic_tools/miniconda3/envs/unitem/opt/MaxBin-2.2.4/src/MaxBin","-fasta","unitem_bins/maxbin_ms40/max40.0014.out.0002.out.0001.out.0001.out.0001.fasta","-abund","unitem_bins/maxbin_ms40/max40.contig.tmp.abund1","-abund2","unitem_bins/maxbin_ms40/max40.contig.tmp.abund2","-abund3","unitem_bins/maxbin_ms40/max40.contig.tmp.abund3","-abund4","unitem_bins/maxbin_ms40/max40.contig.tmp.abund4","-abund5","unitem_bins/maxbin_ms40/max40.contig.tmp.abund
2021-06-10T00:00:03.708625-04:00 p0109 XALT_LOGGING_pitzer: V:4 kind:run nb:60 syshost:pitzer key:run_fini_d146d2d6-e2ba-40f3-a35b-4818c2650ec9 crc:0xCD98 idx:1 value:5","-abund6","unitem_bins/maxbin_ms40/max40.contig.tmp.abund6","-abund7","unitem_bins/maxbin_ms40/max40.contig.tmp.abund7","-abund8","unitem_bins/maxbin_ms40/max40.contig.tmp.abund8","-abund9","unitem_bins/maxbin_ms40/max40.contig.tmp.abund9","-abund10","unitem_bins/maxbin_ms40/max40.contig.tmp.abund10","-abund11","unitem_bins/maxbin_ms40/max40.contig.tmp.abund11","-abund12","unitem_bins/maxbin_ms40/max40.contig.tmp.abund12","-abund13","unitem_bins/maxbin_ms40/max40.contig.tmp.abund13","-abund14","unitem_bi
2021-06-10T00:00:03.709933-04:00 p0109 XALT_LOGGING_pitzer: V:4 kind:run nb:60 syshost:pitzer key:run_fini_d146d2d6-e2ba-40f3-a35b-4818c2650ec9 crc:0xCD98 idx:2 value:ns/maxbin_ms40/max40.contig.tmp.abund14","-abund15","unitem_bins/maxbin_ms40/max40.contig.tmp.abund15","-abund16","unitem_bins/maxbin_ms40/max40.contig.tmp.abund16","-abund17","unitem_bins/maxbin_ms40/max40.contig.tmp.abund17","-abund18","unitem_bins/maxbin_ms40/max40.contig.tmp.abund18","-abund19","unitem_bins/maxbin_ms40/max40.contig.tmp.abund19","-abund20","unitem_bins/maxbin_ms40/max40.contig.tmp.abund20","-abund21","unitem_bins/maxbin_ms40/max40.contig.tmp.abund21","-abund22","unitem_bins/maxbin_ms40/m
2021-06-10T00:00:03.711234-04:00 p0109 XALT_LOGGING_pitzer: V:4 kind:run nb:60 syshost:pitzer key:run_fini_d146d2d6-e2ba-40f3-a35b-4818c2650ec9 crc:0xCD98 idx:3 value:ax40.contig.tmp.abund22","-abund23","unitem_bins/maxbin_ms40/max40.contig.tmp.abund23","-abund24","unitem_bins/maxbin_ms40/max40.contig.tmp.abund24","-abund25","unitem_bins/maxbin_ms40/max40.contig.tmp.abund25","-abund26","unitem_bins/maxbin_ms40/max40.contig.tmp.abund26","-abund27","unitem_bins/maxbin_ms40/max40.contig.tmp.abund27","-abund28","unitem_bins/maxbin_ms40/max40.contig.tmp.abund28","-abund29","unitem_bins/maxbin_ms40/max40.contig.tmp.abund29","-abund30","unitem_bins/maxbin_ms40/max40.contig.tmp.
2021-06-10T00:00:03.712495-04:00 p0109 XALT_LOGGING_pitzer: V:4 kind:run nb:60 syshost:pitzer key:run_fini_d146d2d6-e2ba-40f3-a35b-4818c2650ec9 crc:0xCD98 idx:4 value:abund30","-abund31","unitem_bins/maxbin_ms40/max40.contig.tmp.abund31","-abund32","unitem_bins/maxbin_ms40/max40.contig.tmp.abund32","-abund33","unitem_bins/maxbin_ms40/max40.contig.tmp.abund33","-abund34","unitem_bins/maxbin_ms40/max40.contig.tmp.abund34","-abund35","unitem_bins/maxbin_ms40/max40.contig.tmp.abund35","-abund36","unitem_bins/maxbin_ms40/max40.contig.tmp.abund36","-abund37","unitem_bins/maxbin_ms40/max40.contig.tmp.abund37","-abund38","unitem_bins/maxbin_ms40/max40.contig.tmp.abund38","-abund
2021-06-10T00:00:03.713754-04:00 p0109 XALT_LOGGING_pitzer: V:4 kind:run nb:60 syshost:pitzer key:run_fini_d146d2d6-e2ba-40f3-a35b-4818c2650ec9 crc:0xCD98 idx:5 value:39","unitem_bins/maxbin_ms40/max40.contig.tmp.abund39","-abund40","unitem_bins/maxbin_ms40/max40.contig.tmp.abund40","-abund41","unitem_bins/maxbin_ms40/max40.contig.tmp.abund41","-abund42","unitem_bins/maxbin_ms40/max40.contig.tmp.abund42","-abund43","unitem_bins/maxbin_ms40/max40.contig.tmp.abund43","-abund44","unitem_bins/maxbin_ms40/max40.contig.tmp.abund44","-abund45","unitem_bins/maxbin_ms40/max40.contig.tmp.abund45","-abund46","unitem_bins/maxbin_ms40/max40.contig.tmp.abund46","-abund47","unitem_bins
2021-06-10T00:00:03.715014-04:00 p0109 XALT_LOGGING_pitzer: V:4 kind:run nb:60 syshost:pitzer key:run_fini_d146d2d6-e2ba-40f3-a35b-4818c2650ec9 crc:0xCD98 idx:6 value:/maxbin_ms40/max40.contig.tmp.abund47","-abund48","unitem_bins/maxbin_ms40/max40.contig.tmp.abund48","-abund49","unitem_bins/maxbin_ms40/max40.contig.tmp.abund49","-abund50","unitem_bins/maxbin_ms40/max40.contig.tmp.abund50","-abund51","unitem_bins/maxbin_ms40/max40.contig.tmp.abund51","-abund52","unitem_bins/maxbin_ms40/max40.contig.tmp.abund52","-abund53","unitem_bins/maxbin_ms40/max40.contig.tmp.abund53","-abund54","unitem_bins/maxbin_ms40/max40.contig.tmp.abund54","-abund55","unitem_bins/maxbin_ms40/max
2021-06-10T00:00:03.716266-04:00 p0109 XALT_LOGGING_pitzer: V:4 kind:run nb:60 syshost:pitzer key:run_fini_d146d2d6-e2ba-40f3-a35b-4818c2650ec9 crc:0xCD98 idx:7 value:40.contig.tmp.abund55","-abund56","unitem_bins/maxbin_ms40/max40.contig.tmp.abund56","-abund57","unitem_bins/maxbin_ms40/max40.contig.tmp.abund57","-abund58","unitem_bins/maxbin_ms40/max40.contig.tmp.abund58","-abund59","unitem_bins/maxbin_ms40/max40.contig.tmp.abund59","-abund60","unitem_bins/maxbin_ms40/max40.contig.tmp.abund60","-abund61","unitem_bins/maxbin_ms40/max40.contig.tmp.abund61","-abund62","unitem_bins/maxbin_ms40/max40.contig.tmp.abund62","-abund63","unitem_bins/maxbin_ms40/max40.contig.tmp.ab
2021-06-10T00:00:03.717456-04:00 p0109 XALT_LOGGING_pitzer: V:4 kind:run nb:60 syshost:pitzer key:run_fini_d146d2d6-e2ba-40f3-a35b-4818c2650ec9 crc:0xCD98 idx:8 value:und63","-abund64","unitem_bins/maxbin_ms40/max40.contig.tmp.abund64","-abund65","unitem_bins/maxbin_ms40/max40.contig.tmp.abund65","-abund66","unitem_bins/maxbin_ms40/max40.contig.tmp.abund66","-abund67","unitem_bins/maxbin_ms40/max40.contig.tmp.abund67","-abund68","unitem_bins/maxbin_ms40/max40.contig.tmp.abund68","-abund69","unitem_bins/maxbin_ms40/max40.contig.tmp.abund69","-abund70","unitem_bins/maxbin_ms40/max40.contig.tmp.abund70","-abund71","unitem_bins/maxbin_ms40/max40.contig.tmp.abund71","-abund72
2021-06-10T00:00:03.718624-04:00 p0109 XALT_LOGGING_pitzer: V:4 kind:run nb:60 syshost:pitzer key:run_fini_d146d2d6-e2ba-40f3-a35b-4818c2650ec9 crc:0xCD98 idx:9 value:","unitem_bins/maxbin_ms40/max40.contig.tmp.abund72","-abund73","unitem_bins/maxbin_ms40/max40.contig.tmp.abund73","-abund74","unitem_bins/maxbin_ms40/max40.contig.tmp.abund74","-abund75","unitem_bins/maxbin_ms40/max40.contig.tmp.abund75","-abund76","unitem_bins/maxbin_ms40/max40.contig.tmp.abund76","-abund77","unitem_bins/maxbin_ms40/max40.contig.tmp.abund77","-abund78","unitem_bins/maxbin_ms40/max40.contig.tmp.abund78","-abund79","unitem_bins/maxbin_ms40/max40.contig.tmp.abund79","-abund80","unitem_bins/m
2021-06-10T00:00:03.719807-04:00 p0109 XALT_LOGGING_pitzer: V:4 kind:run nb:60 syshost:pitzer key:run_fini_d146d2d6-e2ba-40f3-a35b-4818c2650ec9 crc:0xCD98 idx:10 value:axbin_ms40/max40.contig.tmp.abund80","-abund81","unitem_bins/maxbin_ms40/max40.contig.tmp.abund81","-abund82","unitem_bins/maxbin_ms40/max40.contig.tmp.abund82","-abund83","unitem_bins/maxbin_ms40/max40.contig.tmp.abund83","-abund84","unitem_bins/maxbin_ms40/max40.contig.tmp.abund84","-abund85","unitem_bins/maxbin_ms40/max40.contig.tmp.abund85","-abund86","unitem_bins/maxbin_ms40/max40.contig.tmp.abund86","-abund87","unitem_bins/maxbin_ms40/max40.contig.tmp.abund87","-abund88","unitem_bins/maxbin_ms40/max40
2021-06-10T00:00:03.720968-04:00 p0109 XALT_LOGGING_pitzer: V:4 kind:run nb:60 syshost:pitzer key:run_fini_d146d2d6-e2ba-40f3-a35b-4818c2650ec9 crc:0xCD98 idx:11 value:.contig.tmp.abund88","-abund89","unitem_bins/maxbin_ms40/max40.contig.tmp.abund89","-abund90","unitem_bins/maxbin_ms40/max40.contig.tmp.abund90","-abund91","unitem_bins/maxbin_ms40/max40.contig.tmp.abund91","-abund92","unitem_bins/maxbin_ms40/max40.contig.tmp.abund92","-abund93","unitem_bins/maxbin_ms40/max40.contig.tmp.abund93","-abund94","unitem_bins/maxbin_ms40/max40.contig.tmp.abund94","-abund95","unitem_bins/maxbin_ms40/max40.contig.tmp.abund95","-abund96","unitem_bins/maxbin_ms40/max40.contig.tmp.abun
2021-06-10T00:00:03.722114-04:00 p0109 XALT_LOGGING_pitzer: V:4 kind:run nb:60 syshost:pitzer key:run_fini_d146d2d6-e2ba-40f3-a35b-4818c2650ec9 crc:0xCD98 idx:12 value:d96","-abund97","unitem_bins/maxbin_ms40/max40.contig.tmp.abund97","-abund98","unitem_bins/maxbin_ms40/max40.contig.tmp.abund98","-abund99","unitem_bins/maxbin_ms40/max40.contig.tmp.abund99","-abund100","unitem_bins/maxbin_ms40/max40.contig.tmp.abund100","-abund101","unitem_bins/maxbin_ms40/max40.contig.tmp.abund101","-abund102","unitem_bins/maxbin_ms40/max40.contig.tmp.abund102","-abund103","unitem_bins/maxbin_ms40/max40.contig.tmp.abund103","-abund104","unitem_bins/maxbin_ms40/max40.contig.tmp.abund104","
2021-06-10T00:00:03.723288-04:00 p0109 XALT_LOGGING_pitzer: V:4 kind:run nb:60 syshost:pitzer key:run_fini_d146d2d6-e2ba-40f3-a35b-4818c2650ec9 crc:0xCD98 idx:13 value:-abund105","unitem_bins/maxbin_ms40/max40.contig.tmp.abund105","-abund106","unitem_bins/maxbin_ms40/max40.contig.tmp.abund106","-abund107","unitem_bins/maxbin_ms40/max40.contig.tmp.abund107","-abund108","unitem_bins/maxbin_ms40/max40.contig.tmp.abund108","-abund109","unitem_bins/maxbin_ms40/max40.contig.tmp.abund109","-abund110","unitem_bins/maxbin_ms40/max40.contig.tmp.abund110","-abund111","unitem_bins/maxbin_ms40/max40.contig.tmp.abund111","-abund112","unitem_bins/maxbin_ms40/max40.contig.tmp.abund112","
2021-06-10T00:00:03.724436-04:00 p0109 XALT_LOGGING_pitzer: V:4 kind:run nb:60 syshost:pitzer key:run_fini_d146d2d6-e2ba-40f3-a35b-4818c2650ec9 crc:0xCD98 idx:14 value:-abund113","unitem_bins/maxbin_ms40/max40.contig.tmp.abund113","-abund114","unitem_bins/maxbin_ms40/max40.contig.tmp.abund114","-abund115","unitem_bins/maxbin_ms40/max40.contig.tmp.abund115","-abund116","unitem_bins/maxbin_ms40/max40.contig.tmp.abund116","-abund117","unitem_bins/maxbin_ms40/max40.contig.tmp.abund117","-abund118","unitem_bins/maxbin_ms40/max40.contig.tmp.abund118","-abund119","unitem_bins/maxbin_ms40/max40.contig.tmp.abund119","-abund120","unitem_bins/maxbin_ms40/max40.contig.tmp.abund120","
2021-06-10T00:00:03.725588-04:00 p0109 XALT_LOGGING_pitzer: V:4 kind:run nb:60 syshost:pitzer key:run_fini_d146d2d6-e2ba-40f3-a35b-4818c2650ec9 crc:0xCD98 idx:15 value:-abund121","unitem_bins/maxbin_ms40/max40.contig.tmp.abund121","-abund122","unitem_bins/maxbin_ms40/max40.contig.tmp.abund122","-abund123","unitem_bins/maxbin_ms40/max40.contig.tmp.abund123","-abund124","unitem_bins/maxbin_ms40/max40.contig.tmp.abund124","-abund125","unitem_bins/maxbin_ms40/max40.contig.tmp.abund125","-abund126","unitem_bins/maxbin_ms40/max40.contig.tmp.abund126","-abund127","unitem_bins/maxbin_ms40/max40.contig.tmp.abund127","-abund128","unitem_bins/maxbin_ms40/max40.contig.tmp.abund128","
2021-06-10T00:00:03.726729-04:00 p0109 XALT_LOGGING_pitzer: V:4 kind:run nb:60 syshost:pitzer key:run_fini_d146d2d6-e2ba-40f3-a35b-4818c2650ec9 crc:0xCD98 idx:16 value:-abund129","unitem_bins/maxbin_ms40/max40.contig.tmp.abund129","-abund130","unitem_bins/maxbin_ms40/max40.contig.tmp.abund130","-abund131","unitem_bins/maxbin_ms40/max40.contig.tmp.abund131","-abund132","unitem_bins/maxbin_ms40/max40.contig.tmp.abund132","-abund133","unitem_bins/maxbin_ms40/max40.contig.tmp.abund133","-abund134","unitem_bins/maxbin_ms40/max40.contig.tmp.abund134","-abund135","unitem_bins/maxbin_ms40/max40.contig.tmp.abund135","-abund136","unitem_bins/maxbin_ms40/max40.contig.tmp.abund136","
2021-06-10T00:00:03.727866-04:00 p0109 XALT_LOGGING_pitzer: V:4 kind:run nb:60 syshost:pitzer key:run_fini_d146d2d6-e2ba-40f3-a35b-4818c2650ec9 crc:0xCD98 idx:17 value:-abund137","unitem_bins/maxbin_ms40/max40.contig.tmp.abund137","-abund138","unitem_bins/maxbin_ms40/max40.contig.tmp.abund138","-abund139","unitem_bins/maxbin_ms40/max40.contig.tmp.abund139","-abund140","unitem_bins/maxbin_ms40/max40.contig.tmp.abund140","-abund141","unitem_bins/maxbin_ms40/max40.contig.tmp.abund141","-abund142","unitem_bins/maxbin_ms40/max40.contig.tmp.abund142","-abund143","unitem_bins/maxbin_ms40/max40.contig.tmp.abund143","-abund144","unitem_bins/maxbin_ms40/max40.contig.tmp.abund144","
2021-06-10T00:00:03.728905-04:00 p0109 XALT_LOGGING_pitzer: V:4 kind:run nb:60 syshost:pitzer key:run_fini_d146d2d6-e2ba-40f3-a35b-4818c2650ec9 crc:0xCD98 idx:18 value:-abund145","unitem_bins/maxbin_ms40/max40.contig.tmp.abund145","-abund146","unitem_bins/maxbin_ms40/max40.contig.tmp.abund146","-abund147","unitem_bins/maxbin_ms40/max40.contig.tmp.abund147","-abund148","unitem_bins/maxbin_ms40/max40.contig.tmp.abund148","-abund149","unitem_bins/maxbin_ms40/max40.contig.tmp.abund149","-abund150","unitem_bins/maxbin_ms40/max40.contig.tmp.abund150","-abund151","unitem_bins/maxbin_ms40/max40.contig.tmp.abund151","-abund152","unitem_bins/maxbin_ms40/max40.contig.tmp.abund152","
2021-06-10T00:00:03.729947-04:00 p0109 XALT_LOGGING_pitzer: V:4 kind:run nb:60 syshost:pitzer key:run_fini_d146d2d6-e2ba-40f3-a35b-4818c2650ec9 crc:0xCD98 idx:19 value:-abund153","unitem_bins/maxbin_ms40/max40.contig.tmp.abund153","-abund154","unitem_bins/maxbin_ms40/max40.contig.tmp.abund154","-abund155","unitem_bins/maxbin_ms40/max40.contig.tmp.abund155","-abund156","unitem_bins/maxbin_ms40/max40.contig.tmp.abund156","-abund157","unitem_bins/maxbin_ms40/max40.contig.tmp.abund157","-abund158","unitem_bins/maxbin_ms40/max40.contig.tmp.abund158","-abund159","unitem_bins/maxbin_ms40/max40.contig.tmp.abund159","-abund160","unitem_bins/maxbin_ms40/max40.contig.tmp.abund160","
2021-06-10T00:00:03.731043-04:00 p0109 XALT_LOGGING_pitzer: V:4 kind:run nb:60 syshost:pitzer key:run_fini_d146d2d6-e2ba-40f3-a35b-4818c2650ec9 crc:0xCD98 idx:20 value:-abund161","unitem_bins/maxbin_ms40/max40.contig.tmp.abund161","-abund162","unitem_bins/maxbin_ms40/max40.contig.tmp.abund162","-abund163","unitem_bins/maxbin_ms40/max40.contig.tmp.abund163","-abund164","unitem_bins/maxbin_ms40/max40.contig.tmp.abund164","-abund165","unitem_bins/maxbin_ms40/max40.contig.tmp.abund165","-abund166","unitem_bins/maxbin_ms40/max40.contig.tmp.abund166","-abund167","unitem_bins/maxbin_ms40/max40.contig.tmp.abund167","-abund168","unitem_bins/maxbin_ms40/max40.contig.tmp.abund168","
2021-06-10T00:00:03.732090-04:00 p0109 XALT_LOGGING_pitzer: V:4 kind:run nb:60 syshost:pitzer key:run_fini_d146d2d6-e2ba-40f3-a35b-4818c2650ec9 crc:0xCD98 idx:21 value:-abund169","unitem_bins/maxbin_ms40/max40.contig.tmp.abund169","-abund170","unitem_bins/maxbin_ms40/max40.contig.tmp.abund170","-abund171","unitem_bins/maxbin_ms40/max40.contig.tmp.abund171","-abund172","unitem_bins/maxbin_ms40/max40.contig.tmp.abund172","-abund173","unitem_bins/maxbin_ms40/max40.contig.tmp.abund173","-abund174","unitem_bins/maxbin_ms40/max40.contig.tmp.abund174","-abund175","unitem_bins/maxbin_ms40/max40.contig.tmp.abund175","-abund176","unitem_bins/maxbin_ms40/max40.contig.tmp.abund176","
2021-06-10T00:00:03.733135-04:00 p0109 XALT_LOGGING_pitzer: V:4 kind:run nb:60 syshost:pitzer key:run_fini_d146d2d6-e2ba-40f3-a35b-4818c2650ec9 crc:0xCD98 idx:22 value:-abund177","unitem_bins/maxbin_ms40/max40.contig.tmp.abund177","-abund178","unitem_bins/maxbin_ms40/max40.contig.tmp.abund178","-abund179","unitem_bins/maxbin_ms40/max40.contig.tmp.abund179","-abund180","unitem_bins/maxbin_ms40/max40.contig.tmp.abund180","-abund181","unitem_bins/maxbin_ms40/max40.contig.tmp.abund181","-abund182","unitem_bins/maxbin_ms40/max40.contig.tmp.abund182","-abund183","unitem_bins/maxbin_ms40/max40.contig.tmp.abund183","-abund184","unitem_bins/maxbin_ms40/max40.contig.tmp.abund184","
2021-06-10T00:00:03.734207-04:00 p0109 XALT_LOGGING_pitzer: V:4 kind:run nb:60 syshost:pitzer key:run_fini_d146d2d6-e2ba-40f3-a35b-4818c2650ec9 crc:0xCD98 idx:23 value:-abund185","unitem_bins/maxbin_ms40/max40.contig.tmp.abund185","-abund186","unitem_bins/maxbin_ms40/max40.contig.tmp.abund186","-abund187","unitem_bins/maxbin_ms40/max40.contig.tmp.abund187","-abund188","unitem_bins/maxbin_ms40/max40.contig.tmp.abund188","-abund189","unitem_bins/maxbin_ms40/max40.contig.tmp.abund189","-abund190","unitem_bins/maxbin_ms40/max40.contig.tmp.abund190","-abund191","unitem_bins/maxbin_ms40/max40.contig.tmp.abund191","-abund192","unitem_bins/maxbin_ms40/max40.contig.tmp.abund192","
2021-06-10T00:00:03.735284-04:00 p0109 XALT_LOGGING_pitzer: V:4 kind:run nb:60 syshost:pitzer key:run_fini_d146d2d6-e2ba-40f3-a35b-4818c2650ec9 crc:0xCD98 idx:24 value:-abund193","unitem_bins/maxbin_ms40/max40.contig.tmp.abund193","-abund194","unitem_bins/maxbin_ms40/max40.contig.tmp.abund194","-abund195","unitem_bins/maxbin_ms40/max40.contig.tmp.abund195","-abund196","unitem_bins/maxbin_ms40/max40.contig.tmp.abund196","-abund197","unitem_bins/maxbin_ms40/max40.contig.tmp.abund197","-abund198","unitem_bins/maxbin_ms40/max40.contig.tmp.abund198","-abund199","unitem_bins/maxbin_ms40/max40.contig.tmp.abund199","-abund200","unitem_bins/maxbin_ms40/max40.contig.tmp.abund200","
2021-06-10T00:00:03.736339-04:00 p0109 XALT_LOGGING_pitzer: V:4 kind:run nb:60 syshost:pitzer key:run_fini_d146d2d6-e2ba-40f3-a35b-4818c2650ec9 crc:0xCD98 idx:25 value:-abund201","unitem_bins/maxbin_ms40/max40.contig.tmp.abund201","-abund202","unitem_bins/maxbin_ms40/max40.contig.tmp.abund202","-abund203","unitem_bins/maxbin_ms40/max40.contig.tmp.abund203","-abund204","unitem_bins/maxbin_ms40/max40.contig.tmp.abund204","-abund205","unitem_bins/maxbin_ms40/max40.contig.tmp.abund205","-abund206","unitem_bins/maxbin_ms40/max40.contig.tmp.abund206","-abund207","unitem_bins/maxbin_ms40/max40.contig.tmp.abund207","-abund208","unitem_bins/maxbin_ms40/max40.contig.tmp.abund208","
2021-06-10T00:00:03.737371-04:00 p0109 XALT_LOGGING_pitzer: V:4 kind:run nb:60 syshost:pitzer key:run_fini_d146d2d6-e2ba-40f3-a35b-4818c2650ec9 crc:0xCD98 idx:26 value:-abund209","unitem_bins/maxbin_ms40/max40.contig.tmp.abund209","-abund210","unitem_bins/maxbin_ms40/max40.contig.tmp.abund210","-abund211","unitem_bins/maxbin_ms40/max40.contig.tmp.abund211","-abund212","unitem_bins/maxbin_ms40/max40.contig.tmp.abund212","-abund213","unitem_bins/maxbin_ms40/max40.contig.tmp.abund213","-abund214","unitem_bins/maxbin_ms40/max40.contig.tmp.abund214","-abund215","unitem_bins/maxbin_ms40/max40.contig.tmp.abund215","-abund216","unitem_bins/maxbin_ms40/max40.contig.tmp.abund216","
2021-06-10T00:00:03.738397-04:00 p0109 XALT_LOGGING_pitzer: V:4 kind:run nb:60 syshost:pitzer key:run_fini_d146d2d6-e2ba-40f3-a35b-4818c2650ec9 crc:0xCD98 idx:27 value:-abund217","unitem_bins/maxbin_ms40/max40.contig.tmp.abund217","-abund218","unitem_bins/maxbin_ms40/max40.contig.tmp.abund218","-abund219","unitem_bins/maxbin_ms40/max40.contig.tmp.abund219","-abund220","unitem_bins/maxbin_ms40/max40.contig.tmp.abund220","-abund221","unitem_bins/maxbin_ms40/max40.contig.tmp.abund221","-abund222","unitem_bins/maxbin_ms40/max40.contig.tmp.abund222","-abund223","unitem_bins/maxbin_ms40/max40.contig.tmp.abund223","-abund224","unitem_bins/maxbin_ms40/max40.contig.tmp.abund224","
2021-06-10T00:00:03.739382-04:00 p0109 XALT_LOGGING_pitzer: V:4 kind:run nb:60 syshost:pitzer key:run_fini_d146d2d6-e2ba-40f3-a35b-4818c2650ec9 crc:0xCD98 idx:28 value:-abund225","unitem_bins/maxbin_ms40/max40.contig.tmp.abund225","-abund226","unitem_bins/maxbin_ms40/max40.contig.tmp.abund226","-abund227","unitem_bins/maxbin_ms40/max40.contig.tmp.abund227","-abund228","unitem_bins/maxbin_ms40/max40.contig.tmp.abund228","-abund229","unitem_bins/maxbin_ms40/max40.contig.tmp.abund229","-abund230","unitem_bins/maxbin_ms40/max40.contig.tmp.abund230","-abund231","unitem_bins/maxbin_ms40/max40.contig.tmp.abund231","-abund232","unitem_bins/maxbin_ms40/max40.contig.tmp.abund232","
2021-06-10T00:00:03.740360-04:00 p0109 XALT_LOGGING_pitzer: V:4 kind:run nb:60 syshost:pitzer key:run_fini_d146d2d6-e2ba-40f3-a35b-4818c2650ec9 crc:0xCD98 idx:29 value:-abund233","unitem_bins/maxbin_ms40/max40.contig.tmp.abund233","-abund234","unitem_bins/maxbin_ms40/max40.contig.tmp.abund234","-abund235","unitem_bins/maxbin_ms40/max40.contig.tmp.abund235","-abund236","unitem_bins/maxbin_ms40/max40.contig.tmp.abund236","-abund237","unitem_bins/maxbin_ms40/max40.contig.tmp.abund237","-abund238","unitem_bins/maxbin_ms40/max40.contig.tmp.abund238","-abund239","unitem_bins/maxbin_ms40/max40.contig.tmp.abund239","-abund240","unitem_bins/maxbin_ms40/max40.contig.tmp.abund240","
2021-06-10T00:00:03.741320-04:00 p0109 XALT_LOGGING_pitzer: V:4 kind:run nb:60 syshost:pitzer key:run_fini_d146d2d6-e2ba-40f3-a35b-4818c2650ec9 crc:0xCD98 idx:30 value:-abund241","unitem_bins/maxbin_ms40/max40.contig.tmp.abund241","-abund242","unitem_bins/maxbin_ms40/max40.contig.tmp.abund242","-abund243","unitem_bins/maxbin_ms40/max40.contig.tmp.abund243","-abund244","unitem_bins/maxbin_ms40/max40.contig.tmp.abund244","-abund245","unitem_bins/maxbin_ms40/max40.contig.tmp.abund245","-abund246","unitem_bins/maxbin_ms40/max40.contig.tmp.abund246","-abund247","unitem_bins/maxbin_ms40/max40.contig.tmp.abund247","-abund248","unitem_bins/maxbin_ms40/max40.contig.tmp.abund248","
2021-06-10T00:00:03.742264-04:00 p0109 XALT_LOGGING_pitzer: V:4 kind:run nb:60 syshost:pitzer key:run_fini_d146d2d6-e2ba-40f3-a35b-4818c2650ec9 crc:0xCD98 idx:31 value:-abund249","unitem_bins/maxbin_ms40/max40.contig.tmp.abund249","-abund250","unitem_bins/maxbin_ms40/max40.contig.tmp.abund250","-abund251","unitem_bins/maxbin_ms40/max40.contig.tmp.abund251","-abund252","unitem_bins/maxbin_ms40/max40.contig.tmp.abund252","-abund253","unitem_bins/maxbin_ms40/max40.contig.tmp.abund253","-abund254","unitem_bins/maxbin_ms40/max40.contig.tmp.abund254","-abund255","unitem_bins/maxbin_ms40/max40.contig.tmp.abund255","-abund256","unitem_bins/maxbin_ms40/max40.contig.tmp.abund256","
2021-06-10T00:00:03.743207-04:00 p0109 XALT_LOGGING_pitzer: V:4 kind:run nb:60 syshost:pitzer key:run_fini_d146d2d6-e2ba-40f3-a35b-4818c2650ec9 crc:0xCD98 idx:32 value:-abund257","unitem_bins/maxbin_ms40/max40.contig.tmp.abund257","-abund258","unitem_bins/maxbin_ms40/max40.contig.tmp.abund258","-abund259","unitem_bins/maxbin_ms40/max40.contig.tmp.abund259","-abund260","unitem_bins/maxbin_ms40/max40.contig.tmp.abund260","-abund261","unitem_bins/maxbin_ms40/max40.contig.tmp.abund261","-abund262","unitem_bins/maxbin_ms40/max40.contig.tmp.abund262","-abund263","unitem_bins/maxbin_ms40/max40.contig.tmp.abund263","-abund264","unitem_bins/maxbin_ms40/max40.contig.tmp.abund264","
2021-06-10T00:00:03.744166-04:00 p0109 XALT_LOGGING_pitzer: V:4 kind:run nb:60 syshost:pitzer key:run_fini_d146d2d6-e2ba-40f3-a35b-4818c2650ec9 crc:0xCD98 idx:33 value:-abund265","unitem_bins/maxbin_ms40/max40.contig.tmp.abund265","-abund266","unitem_bins/maxbin_ms40/max40.contig.tmp.abund266","-abund267","unitem_bins/maxbin_ms40/max40.contig.tmp.abund267","-abund268","unitem_bins/maxbin_ms40/max40.contig.tmp.abund268","-abund269","unitem_bins/maxbin_ms40/max40.contig.tmp.abund269","-abund270","unitem_bins/maxbin_ms40/max40.contig.tmp.abund270","-abund271","unitem_bins/maxbin_ms40/max40.contig.tmp.abund271","-abund272","unitem_bins/maxbin_ms40/max40.contig.tmp.abund272","
2021-06-10T00:00:03.745117-04:00 p0109 XALT_LOGGING_pitzer: V:4 kind:run nb:60 syshost:pitzer key:run_fini_d146d2d6-e2ba-40f3-a35b-4818c2650ec9 crc:0xCD98 idx:34 value:-abund273","unitem_bins/maxbin_ms40/max40.contig.tmp.abund273","-abund274","unitem_bins/maxbin_ms40/max40.contig.tmp.abund274","-abund275","unitem_bins/maxbin_ms40/max40.contig.tmp.abund275","-abund276","unitem_bins/maxbin_ms40/max40.contig.tmp.abund276","-abund277","unitem_bins/maxbin_ms40/max40.contig.tmp.abund277","-abund278","unitem_bins/maxbin_ms40/max40.contig.tmp.abund278","-abund279","unitem_bins/maxbin_ms40/max40.contig.tmp.abund279","-abund280","unitem_bins/maxbin_ms40/max40.contig.tmp.abund280","
2021-06-10T00:00:03.746072-04:00 p0109 XALT_LOGGING_pitzer: V:4 kind:run nb:60 syshost:pitzer key:run_fini_d146d2d6-e2ba-40f3-a35b-4818c2650ec9 crc:0xCD98 idx:35 value:-abund281","unitem_bins/maxbin_ms40/max40.contig.tmp.abund281","-abund282","unitem_bins/maxbin_ms40/max40.contig.tmp.abund282","-abund283","unitem_bins/maxbin_ms40/max40.contig.tmp.abund283","-abund284","unitem_bins/maxbin_ms40/max40.contig.tmp.abund284","-abund285","unitem_bins/maxbin_ms40/max40.contig.tmp.abund285","-abund286","unitem_bins/maxbin_ms40/max40.contig.tmp.abund286","-abund287","unitem_bins/maxbin_ms40/max40.contig.tmp.abund287","-abund288","unitem_bins/maxbin_ms40/max40.contig.tmp.abund288","
2021-06-10T00:00:03.747022-04:00 p0109 XALT_LOGGING_pitzer: V:4 kind:run nb:60 syshost:pitzer key:run_fini_d146d2d6-e2ba-40f3-a35b-4818c2650ec9 crc:0xCD98 idx:36 value:-abund289","unitem_bins/maxbin_ms40/max40.contig.tmp.abund289","-abund290","unitem_bins/maxbin_ms40/max40.contig.tmp.abund290","-abund291","unitem_bins/maxbin_ms40/max40.contig.tmp.abund291","-abund292","unitem_bins/maxbin_ms40/max40.contig.tmp.abund292","-abund293","unitem_bins/maxbin_ms40/max40.contig.tmp.abund293","-abund294","unitem_bins/maxbin_ms40/max40.contig.tmp.abund294","-abund295","unitem_bins/maxbin_ms40/max40.contig.tmp.abund295","-abund296","unitem_bins/maxbin_ms40/max40.contig.tmp.abund296","
2021-06-10T00:00:03.748007-04:00 p0109 XALT_LOGGING_pitzer: V:4 kind:run nb:60 syshost:pitzer key:run_fini_d146d2d6-e2ba-40f3-a35b-4818c2650ec9 crc:0xCD98 idx:37 value:-abund297","unitem_bins/maxbin_ms40/max40.contig.tmp.abund297","-abund298","unitem_bins/maxbin_ms40/max40.contig.tmp.abund298","-abund299","unitem_bins/maxbin_ms40/max40.contig.tmp.abund299","-abund300","unitem_bins/maxbin_ms40/max40.contig.tmp.abund300","-abund301","unitem_bins/maxbin_ms40/max40.contig.tmp.abund301","-abund302","unitem_bins/maxbin_ms40/max40.contig.tmp.abund302","-abund303","unitem_bins/maxbin_ms40/max40.contig.tmp.abund303","-abund304","unitem_bins/maxbin_ms40/max40.contig.tmp.abund304","
2021-06-10T00:00:03.748958-04:00 p0109 XALT_LOGGING_pitzer: V:4 kind:run nb:60 syshost:pitzer key:run_fini_d146d2d6-e2ba-40f3-a35b-4818c2650ec9 crc:0xCD98 idx:38 value:-abund305","unitem_bins/maxbin_ms40/max40.contig.tmp.abund305","-abund306","unitem_bins/maxbin_ms40/max40.contig.tmp.abund306","-abund307","unitem_bins/maxbin_ms40/max40.contig.tmp.abund307","-abund308","unitem_bins/maxbin_ms40/max40.contig.tmp.abund308","-abund309","unitem_bins/maxbin_ms40/max40.contig.tmp.abund309","-abund310","unitem_bins/maxbin_ms40/max40.contig.tmp.abund310","-abund311","unitem_bins/maxbin_ms40/max40.contig.tmp.abund311","-abund312","unitem_bins/maxbin_ms40/max40.contig.tmp.abund312","
2021-06-10T00:00:03.749874-04:00 p0109 XALT_LOGGING_pitzer: V:4 kind:run nb:60 syshost:pitzer key:run_fini_d146d2d6-e2ba-40f3-a35b-4818c2650ec9 crc:0xCD98 idx:39 value:-abund313","unitem_bins/maxbin_ms40/max40.contig.tmp.abund313","-abund314","unitem_bins/maxbin_ms40/max40.contig.tmp.abund314","-abund315","unitem_bins/maxbin_ms40/max40.contig.tmp.abund315","-abund316","unitem_bins/maxbin_ms40/max40.contig.tmp.abund316","-abund317","unitem_bins/maxbin_ms40/max40.contig.tmp.abund317","-abund318","unitem_bins/maxbin_ms40/max40.contig.tmp.abund318","-abund319","unitem_bins/maxbin_ms40/max40.contig.tmp.abund319","-abund320","unitem_bins/maxbin_ms40/max40.contig.tmp.abund320","
2021-06-10T00:00:03.750771-04:00 p0109 XALT_LOGGING_pitzer: V:4 kind:run nb:60 syshost:pitzer key:run_fini_d146d2d6-e2ba-40f3-a35b-4818c2650ec9 crc:0xCD98 idx:40 value:-abund321","unitem_bins/maxbin_ms40/max40.contig.tmp.abund321","-abund322","unitem_bins/maxbin_ms40/max40.contig.tmp.abund322","-abund323","unitem_bins/maxbin_ms40/max40.contig.tmp.abund323","-abund324","unitem_bins/maxbin_ms40/max40.contig.tmp.abund324","-abund325","unitem_bins/maxbin_ms40/max40.contig.tmp.abund325","-abund326","unitem_bins/maxbin_ms40/max40.contig.tmp.abund326","-abund327","unitem_bins/maxbin_ms40/max40.contig.tmp.abund327","-abund328","unitem_bins/maxbin_ms40/max40.contig.tmp.abund328","
2021-06-10T00:00:03.751712-04:00 p0109 XALT_LOGGING_pitzer: V:4 kind:run nb:60 syshost:pitzer key:run_fini_d146d2d6-e2ba-40f3-a35b-4818c2650ec9 crc:0xCD98 idx:41 value:-abund329","unitem_bins/maxbin_ms40/max40.contig.tmp.abund329","-abund330","unitem_bins/maxbin_ms40/max40.contig.tmp.abund330","-abund331","unitem_bins/maxbin_ms40/max40.contig.tmp.abund331","-abund332","unitem_bins/maxbin_ms40/max40.contig.tmp.abund332","-abund333","unitem_bins/maxbin_ms40/max40.contig.tmp.abund333","-abund334","unitem_bins/maxbin_ms40/max40.contig.tmp.abund334","-abund335","unitem_bins/maxbin_ms40/max40.contig.tmp.abund335","-abund336","unitem_bins/maxbin_ms40/max40.contig.tmp.abund336","
2021-06-10T00:00:03.752595-04:00 p0109 XALT_LOGGING_pitzer: V:4 kind:run nb:60 syshost:pitzer key:run_fini_d146d2d6-e2ba-40f3-a35b-4818c2650ec9 crc:0xCD98 idx:42 value:-abund337","unitem_bins/maxbin_ms40/max40.contig.tmp.abund337","-abund338","unitem_bins/maxbin_ms40/max40.contig.tmp.abund338","-abund339","unitem_bins/maxbin_ms40/max40.contig.tmp.abund339","-abund340","unitem_bins/maxbin_ms40/max40.contig.tmp.abund340","-abund341","unitem_bins/maxbin_ms40/max40.contig.tmp.abund341","-abund342","unitem_bins/maxbin_ms40/max40.contig.tmp.abund342","-abund343","unitem_bins/maxbin_ms40/max40.contig.tmp.abund343","-abund344","unitem_bins/maxbin_ms40/max40.contig.tmp.abund344","
2021-06-10T00:00:03.753489-04:00 p0109 XALT_LOGGING_pitzer: V:4 kind:run nb:60 syshost:pitzer key:run_fini_d146d2d6-e2ba-40f3-a35b-4818c2650ec9 crc:0xCD98 idx:43 value:-seed","unitem_bins/maxbin_ms40/max40.0014.out.0002.out.0001.out.0001.out.0001.out.seed","-out","unitem_bins/maxbin_ms40/max40.0014.out.0002.out.0001.out.0001.out.0001.out","-min_contig_length","2500","-thread","20"],"hash_id":"50fd3fa68a3a7ce869d101d912d30325f22f6906","libA":[["/usr/lib64/ld-2.17.so","0"],["/usr/lib64/libpthread-2.17.so","0"],["/fs/project/PAS1117/Cronin/Bioinformatic_tools/miniconda3/envs/unitem/lib/libstdc++.so.6.0.24","0"],["/usr/lib64/libm-2.17.so","0"],["/fs/project/PAS1117/Cronin/Bio
2021-06-10T00:00:03.754870-04:00 p0109 XALT_LOGGING_pitzer: V:4 kind:run nb:60 syshost:pitzer key:run_fini_d146d2d6-e2ba-40f3-a35b-4818c2650ec9 crc:0xCD98 idx:44 value:informatic_tools/miniconda3/envs/unitem/lib/libgcc_s.so.1","0"],["/usr/lib64/libc-2.17.so","0"],["/usr/lib64/libdl-2.17.so","0"],["/apps/xalt/2.10.10/lib64/libuuid.so.1.3.0","0"]],"ptA":[{"cmd_name":"perl","cmd_path":"/fs/project/PAS1117/Cronin/Bioinformatic_tools/miniconda3/envs/unitem/bin/perl","pid":181398,"cmdlineA":["perl","/users/PAS1117/osu9433/ProjectDir_Cronin/Bioinformatic_tools/miniconda3/envs/unitem/bin/run_MaxBin.pl","-min_contig_length","2500","-thread","20","-markerset","40","-contig","/fs/pr
2021-06-10T00:00:03.756231-04:00 p0109 XALT_LOGGING_pitzer: V:4 kind:run nb:60 syshost:pitzer key:run_fini_d146d2d6-e2ba-40f3-a35b-4818c2650ec9 crc:0xCD98 idx:45 value:oject/PAS1117/SCI/Mohamed2020/04_MAGs/Readmapping_for_MAGs/Dereplicated_combined_mouse_assemblies/Mouse38_derep_combined_contigs.fna","-out","unitem_bins/maxbin_ms40/max40","-abund_list","unitem_bins/maxbin_ms40/coverage_files/abund_files.lst"]},{"cmd_name":"unitem","cmd_path":"/fs/project/PAS1117/Cronin/Bioinformatic_tools/miniconda3/envs/unitem/bin/python2.7","pid":153965,"cmdlineA":["/users/PAS1117/osu9433/ProjectDir_Cronin/Bioinformatic_tools/miniconda3/envs/unitem/bin/python","/users/PAS1117/osu9433/Pr
2021-06-10T00:00:03.757628-04:00 p0109 XALT_LOGGING_pitzer: V:4 kind:run nb:60 syshost:pitzer key:run_fini_d146d2d6-e2ba-40f3-a35b-4818c2650ec9 crc:0xCD98 idx:46 value:ojectDir_Cronin/Bioinformatic_tools/miniconda3/envs/unitem/bin/unitem","bin","--bs","--mb2","--max40","--max107","--mb_verysensitive","--mb_sensitive","--mb_specific","--mb_veryspecific","--mb_superspecific","/fs/project/PAS1117/SCI/Mohamed2020/04_MAGs/Readmapping_for_MAGs/Dereplicated_combined_mouse_assemblies/Mouse38_derep_combined_contigs.fna","unitem_bins","--bam_files","/fs/scratch/Sullivan_Lab/Mohamed/SCI/Readmapping_coverm/Mouse_38/Filtered_Mouse38_derep_combined_contigs.fna.PLATE1_R1_A01_clean.fastq
2021-06-10T00:00:03.758990-04:00 p0109 XALT_LOGGING_pitzer: V:4 kind:run nb:60 syshost:pitzer key:run_fini_d146d2d6-e2ba-40f3-a35b-4818c2650ec9 crc:0xCD98 idx:47 value:.gz.bam","/fs/scratch/Sullivan_Lab/Mohamed/SCI/Readmapping_coverm/Mouse_38/Filtered_Mouse38_derep_combined_contigs.fna.PLATE1_R1_A02_clean.fastq.gz.bam","/fs/scratch/Sullivan_Lab/Mohamed/SCI/Readmapping_coverm/Mouse_38/Filtered_Mouse38_derep_combined_contigs.fna.PLATE1_R1_A03_clean.fastq.gz.bam","/fs/scratch/Sullivan_Lab/Mohamed/SCI/Readmapping_coverm/Mouse_38/Filtered_Mouse38_derep_combined_contigs.fna.PLATE1_R1_A04_clean.fastq.gz.bam","/fs/scratch/Sullivan_Lab/Mohamed/SCI/Readmapping_coverm/Mouse_38/Filte
2021-06-10T00:00:03.760083-04:00 p0109 XALT_LOGGING_pitzer: V:4 kind:run nb:60 syshost:pitzer key:run_fini_d146d2d6-e2ba-40f3-a35b-4818c2650ec9 crc:0xCD98 idx:48 value:red_Mouse38_derep_combined_contigs.fna.PLATE1_R1_A05_clean.fastq.gz.bam","/fs/scratch/Sullivan_Lab/Mohamed/SCI/Readmapping_coverm/Mouse_38/Filtered_Mouse38_derep_combined_contigs.fna.PLATE1_R1_A06_clean.fastq.gz.bam","/fs/scratch/Sullivan_Lab/Mohamed/SCI/Readmapping_coverm/Mouse_38/Filtered_Mouse38_derep_combined_contigs.fna.PLATE1_R1_A07_clean.fastq.gz.bam","/fs/scratch/Sullivan_Lab/Mohamed/SCI/Readmapping_coverm/Mouse_38/Filtered_Mouse38_derep_combined_contigs.fna.PLATE1_R1_A08_clean.fastq.gz.bam","/fs/sc
2021-06-10T00:00:03.761099-04:00 p0109 XALT_LOGGING_pitzer: V:4 kind:run nb:60 syshost:pitzer key:run_fini_d146d2d6-e2ba-40f3-a35b-4818c2650ec9 crc:0xCD98 idx:49 value:ratch/Sullivan_Lab/Mohamed/SCI/Readmapping_coverm/Mouse_38/Filtered_Mouse38_derep_combined_contigs.fna.PLATE1_R1_A09_clean.fastq.gz.bam","/fs/scratch/Sullivan_Lab/Mohamed/SCI/Readmapping_coverm/Mouse_38/Filtered_Mouse38_derep_combined_contigs.fna.PLATE1_R1_A10_clean.fastq.gz.bam","/fs/scratch/Sullivan_Lab/Mohamed/SCI/Readmapping_coverm/Mouse_38/Filtered_Mouse38_derep_combined_contigs.fna.PLATE1_R1_A11_clean.fastq.gz.bam","/fs/scratch/Sullivan_Lab/Mohamed/SCI/Readmapping_coverm/Mouse_38/Filtered_Mouse38_dere
2021-06-10T00:00:03.762114-04:00 p0109 XALT_LOGGING_pitzer: V:4 kind:run nb:60 syshost:pitzer key:run_fini_d146d2d6-e2ba-40f3-a35b-4818c2650ec9 crc:0xCD98 idx:50 value:p_combined_contigs.fna.PLATE1_R1_A12_clean.fastq.gz.bam","/fs/scratch/Sullivan_Lab/Mohamed/SCI/Readmapping_coverm/Mouse_38/Filtered_Mouse38_derep_combined_contigs.fna.PLATE1_R1_B01_clean.fastq.gz.bam","/fs/scratch/Sullivan_Lab/Mohamed/SCI/Readmapping_coverm/Mouse_38/Filtered_Mouse38_derep_combined_contigs.fna.PLATE1_R1_B02_clean.fastq.gz.bam","/fs/scratch/Sullivan_Lab/Mohamed/SCI/Readmapping_coverm/Mouse_38/Filtered_Mouse38_derep_combined_contigs.fna.PLATE1_R1_B03_clean.fastq.gz.bam","/fs/scratch/Sullivan_L
2021-06-10T00:00:03.763154-04:00 p0109 XALT_LOGGING_pitzer: V:4 kind:run nb:60 syshost:pitzer key:run_fini_d146d2d6-e2ba-40f3-a35b-4818c2650ec9 crc:0xCD98 idx:51 value:ab/Mohamed/SCI/Readmapping_coverm/Mouse_38/Filtered_Mouse38_derep_combined_contigs.fna.PLATE1_R1_B04_clean.fastq.gz.bam","/fs/scratch/Sullivan_Lab/Mohamed/SCI/Readmapping_coverm/Mouse_38/Filtered_Mouse38_derep_combined_contigs.fna.PLATE1_R1_B05_clean.fastq.gz.bam","/fs/scratch/Sullivan_Lab/Mohamed/SCI/Readmapping_coverm/Mouse_38/Filtered_Mouse38_derep_combined_contigs.fna.PLATE1_R1_B06_clean.fastq.gz.bam","/fs/scratch/Sullivan_Lab/Mohamed/SCI/Readmapping_coverm/Mouse_38/Filtered_Mouse38_derep_combined_conti
2021-06-10T00:00:03.764162-04:00 p0109 XALT_LOGGING_pitzer: V:4 kind:run nb:60 syshost:pitzer key:run_fini_d146d2d6-e2ba-40f3-a35b-4818c2650ec9 crc:0xCD98 idx:52 value:gs.fna.PLATE1_R1_B07_clean.fastq.gz.bam","/fs/scratch/Sullivan_Lab/Mohamed/SCI/Readmapping_coverm/Mouse_38/Filtered_Mouse38_derep_combined_contigs.fna.PLATE1_R1_B08_clean.fastq.gz.bam","/fs/scratch/Sullivan_Lab/Mohamed/SCI/Readmapping_coverm/Mouse_38/Filtered_Mouse38_derep_combined_contigs.fna.PLATE1_R1_B09_clean.fastq.gz.bam","/fs/scratch/Sullivan_Lab/Mohamed/SCI/Readmapping_coverm/Mouse_38/Filtered_Mouse38_derep_combined_contigs.fna.PLATE1_R1_B10_clean.fastq.gz.bam","/fs/scratch/Sullivan_Lab/Mohamed/SCI/R
2021-06-10T00:00:03.765183-04:00 p0109 XALT_LOGGING_pitzer: V:4 kind:run nb:60 syshost:pitzer key:run_fini_d146d2d6-e2ba-40f3-a35b-4818c2650ec9 crc:0xCD98 idx:53 value:eadmapping_coverm/Mouse_38/Filtered_Mouse38_derep_combined_contigs.fna.PLATE1_R1_B11_clean.fastq.gz.bam","/fs/scratch/Sullivan_Lab/Mohamed/SCI/Readmapping_coverm/Mouse_38/Filtered_Mouse38_derep_combined_contigs.fna.PLATE1_R1_B12_clean.fastq.gz.bam","/fs/scratch/Sullivan_Lab/Mohamed/SCI/Readmapping_coverm/Mouse_38/Filtered_Mouse38_derep_combined_contigs.fna.PLATE1_R1_C01_clean.fastq.gz.bam","/fs/scratch/Sullivan_Lab/Mohamed/SCI/Readmapping_coverm/Mouse_38/Filtered_M"]},{"cmd_name":"slurm_script","cmd_path":"
2021-06-10T00:00:03.766255-04:00 p0109 XALT_LOGGING_pitzer: V:4 kind:run nb:60 syshost:pitzer key:run_fini_d146d2d6-e2ba-40f3-a35b-4818c2650ec9 crc:0xCD98 idx:54 value:/usr/bin/bash","pid":153927,"cmdlineA":["/bin/bash","/var/spool/slurmd/job4308606/slurm_script"]}],"envT":{"LD_LIBRARY_PATH":"/opt/mvapich2/intel/19.0/2.3.3/lib:/apps/gnu/8.4.0/lib64:/apps/gnu/8.4.0/lib:/opt/intel/19.0.5/debugger_2019/libipt/intel64/lib:/opt/intel/19.0.5/compilers_and_libraries_2019/linux/lib/intel64_lin:/opt/intel/19.0.5/compilers_and_libraries_2019/linux/daal/lib/intel64_lin:/opt/intel/19.0.5/compilers_and_libraries_2019/linux/ipp/lib/intel64_lin:/opt/intel/19.0.5/compilers_and_libraries_
2021-06-10T00:00:03.767442-04:00 p0109 XALT_LOGGING_pitzer: V:4 kind:run nb:60 syshost:pitzer key:run_fini_d146d2d6-e2ba-40f3-a35b-4818c2650ec9 crc:0xCD98 idx:55 value:2019/linux/mkl/lib/intel64_lin:/opt/intel/19.0.5/compilers_and_libraries_2019/linux/tbb/lib/intel64_lin/gcc4.4","PATH":"/users/PAS1117/osu9433/ProjectDir_Cronin/Bioinformatic_tools/miniconda3/envs/unitem/bin:/users/PAS1117/osu9433/ProjectDir_Cronin/Bioinformatic_tools/miniconda3/condabin:/apps/xalt/xalt/bin:/opt/mvapich2/intel/19.0/2.3.3/bin:/apps/gnu/8.4.0/bin:/opt/intel/19.0.5/itac_latest/bin:/opt/intel/19.0.5/advisor/bin64:/opt/intel/19.0.5/vtune_amplifier/bin64:/opt/intel/19.0.5/inspector_2019/bin64:/op
2021-06-10T00:00:03.768631-04:00 p0109 XALT_LOGGING_pitzer: V:4 kind:run nb:60 syshost:pitzer key:run_fini_d146d2d6-e2ba-40f3-a35b-4818c2650ec9 crc:0xCD98 idx:56 value:t/intel/19.0.5/compilers_and_libraries_2019/linux/bin/intel64:/apps/software_usage:/usr/lib64/qt-3.3/bin:/opt/osc/bin:/opt/moab/bin:/usr/local/bin:/bin:/usr/bin:/usr/local/sbin:/usr/sbin:/opt/ibutils/bin:/opt/ddn/ime/bin:/opt/puppetlabs/bin","_LMFILES_":"/apps/lmodfiles/Core/xalt/latest.lua:/apps/lmodfiles/Core/gcc-compatibility/8.4.0.lua:/apps/lmodfiles/Core/intel/19.0.5.lua:/apps/lmodfiles/Compiler/intel/19.0/mvapich2/2.3.3.lua:/apps/lmodfiles/Core/modules/sp2020.lua","MODULEPATH":"/apps/lmodfiles/MPI/int
2021-06-10T00:00:03.769835-04:00 p0109 XALT_LOGGING_pitzer: V:4 kind:run nb:60 syshost:pitzer key:run_fini_d146d2d6-e2ba-40f3-a35b-4818c2650ec9 crc:0xCD98 idx:57 value:el/19.0/mvapich2/2.3:/apps/lmodfiles/Compiler/intel/19.0:/apps/lmodfiles/Linux:/apps/lmodfiles/Core:/apps/lmod/lmod/modulefiles/Core","LOADEDMODULES":"xalt/latest:gcc-compatibility/8.4.0:intel/19.0.5:mvapich2/2.3.3:modules/sp2020","MV2_USE_RDMA_CM":"0","MKL_THREADING_LAYER":"INTEL"},"userT":{"syshost":"pitzer","run_uuid":"d146d2d6-e2ba-40f3-a35b-4818c2650ec9","exec_path":"/fs/project/PAS1117/Cronin/Bioinformatic_tools/miniconda3/envs/unitem/opt/MaxBin-2.2.4/src/MaxBin","exec_type":"binary","cwd":"/fs/scratc
2021-06-10T00:00:03.771148-04:00 p0109 XALT_LOGGING_pitzer: V:4 kind:run nb:60 syshost:pitzer key:run_fini_d146d2d6-e2ba-40f3-a35b-4818c2650ec9 crc:0xCD98 idx:58 value:h/Sullivan_Lab/Mohamed/SCI/MAGs/Mouse_38/Binning","currentEpoch":"1623297603.644592","start_date":"Wed Jun  9 23:59:34 2021","user":"mohssen","execModify":"Sun Jul  8 00:03:50 2018","scheduler":"SLURM","account":"pas1117","job_id":"4308606","queue":"serial-40core","submit_host":"pitzer-login03.hpc.osc.edu"},"userDT":{"start_time":1623297574.7972,"end_time":1623297603.6351,"run_time":28.8379,"probability":1.0000,"num_tasks":1.0000,"num_gpus":0.0000,"exec_epoch":1623297574.0000,"num_threads":1.0000,"num_cores
2021-06-10T00:00:03.772448-04:00 p0109 XALT_LOGGING_pitzer: V:4 kind:run nb:60 syshost:pitzer key:run_fini_d146d2d6-e2ba-40f3-a35b-4818c2650ec9 crc:0xCD98 idx:59 value:":1.0000,"num_nodes":1.0000},"xaltLinkT":{},"XALT_measureT":{"04_WalkProcTree__":0.0092,"03_BuildEnvT_____":0.0002,"05_Build_RecordT_":0.0000,"01_BuildUserT____":0.0593,"02_Sha1_exec_____":0.0000,"06_ParseProcMaps_":0.0003,"07_GPU_Setup_____":0.0000,"08____total______":0.0698},"XALT_qaT":{"XALT_GIT_VERSION":"xalt-2.10.10-3-g42b3703","XALT_FILE_PREFIX":"USE_HOME"}}
2021-06-10T00:00:04.958803-04:00 p0109 XALT_LOGGING_pitzer: V:4 kind:run nb:60 syshost:pitzer key:run_strt_e9987873-873a-4a93-b5d0-5313b17496da crc:0xDAEC idx:0 value:{"crc":"0xDAEC","cmdlineA":["/fs/project/PAS1117/Cronin/Bioinformatic_tools/miniconda3/envs/unitem/opt/MaxBin-2.2.4/src/MaxBin","-fasta","unitem_bins/maxbin_ms40/max40.0019.out.0002.out.0003.out.0002.out.0001.fasta","-abund","unitem_bins/maxbin_ms40/max40.contig.tmp.abund1","-abund2","unitem_bins/maxbin_ms40/max40.contig.tmp.abund2","-abund3","unitem_bins/maxbin_ms40/max40.contig.tmp.abund3","-abund4","unitem_bins/maxbin_ms40/max40.contig.tmp.abund4","-abund5","unitem_bins/maxbin_ms40/max40.contig.tmp.abund
2021-06-10T00:00:04.963642-04:00 p0109 XALT_LOGGING_pitzer: V:4 kind:run nb:60 syshost:pitzer key:run_strt_e9987873-873a-4a93-b5d0-5313b17496da crc:0xDAEC idx:1 value:5","-abund6","unitem_bins/maxbin_ms40/max40.contig.tmp.abund6","-abund7","unitem_bins/maxbin_ms40/max40.contig.tmp.abund7","-abund8","unitem_bins/maxbin_ms40/max40.contig.tmp.abund8","-abund9","unitem_bins/maxbin_ms40/max40.contig.tmp.abund9","-abund10","unitem_bins/maxbin_ms40/max40.contig.tmp.abund10","-abund11","unitem_bins/maxbin_ms40/max40.contig.tmp.abund11","-abund12","unitem_bins/maxbin_ms40/max40.contig.tmp.abund12","-abund13","unitem_bins/maxbin_ms40/max40.contig.tmp.abund13","-abund14","unitem_bi
2021-06-10T00:00:04.966095-04:00 p0109 XALT_LOGGING_pitzer: V:4 kind:run nb:60 syshost:pitzer key:run_strt_e9987873-873a-4a93-b5d0-5313b17496da crc:0xDAEC idx:2 value:ns/maxbin_ms40/max40.contig.tmp.abund14","-abund15","unitem_bins/maxbin_ms40/max40.contig.tmp.abund15","-abund16","unitem_bins/maxbin_ms40/max40.contig.tmp.abund16","-abund17","unitem_bins/maxbin_ms40/max40.contig.tmp.abund17","-abund18","unitem_bins/maxbin_ms40/max40.contig.tmp.abund18","-abund19","unitem_bins/maxbin_ms40/max40.contig.tmp.abund19","-abund20","unitem_bins/maxbin_ms40/max40.contig.tmp.abund20","-abund21","unitem_bins/maxbin_ms40/max40.contig.tmp.abund21","-abund22","unitem_bins/maxbin_ms40/m
2021-06-10T00:00:04.968488-04:00 p0109 XALT_LOGGING_pitzer: V:4 kind:run nb:60 syshost:pitzer key:run_strt_e9987873-873a-4a93-b5d0-5313b17496da crc:0xDAEC idx:3 value:ax40.contig.tmp.abund22","-abund23","unitem_bins/maxbin_ms40/max40.contig.tmp.abund23","-abund24","unitem_bins/maxbin_ms40/max40.contig.tmp.abund24","-abund25","unitem_bins/maxbin_ms40/max40.contig.tmp.abund25","-abund26","unitem_bins/maxbin_ms40/max40.contig.tmp.abund26","-abund27","unitem_bins/maxbin_ms40/max40.contig.tmp.abund27","-abund28","unitem_bins/maxbin_ms40/max40.contig.tmp.abund28","-abund29","unitem_bins/maxbin_ms40/max40.contig.tmp.abund29","-abund30","unitem_bins/maxbin_ms40/max40.contig.tmp.
2021-06-10T00:00:04.970740-04:00 p0109 XALT_LOGGING_pitzer: V:4 kind:run nb:60 syshost:pitzer key:run_strt_e9987873-873a-4a93-b5d0-5313b17496da crc:0xDAEC idx:4 value:abund30","-abund31","unitem_bins/maxbin_ms40/max40.contig.tmp.abund31","-abund32","unitem_bins/maxbin_ms40/max40.contig.tmp.abund32","-abund33","unitem_bins/maxbin_ms40/max40.contig.tmp.abund33","-abund34","unitem_bins/maxbin_ms40/max40.contig.tmp.abund34","-abund35","unitem_bins/maxbin_ms40/max40.contig.tmp.abund35","-abund36","unitem_bins/maxbin_ms40/max40.contig.tmp.abund36","-abund37","unitem_bins/maxbin_ms40/max40.contig.tmp.abund37","-abund38","unitem_bins/maxbin_ms40/max40.contig.tmp.abund38","-abund
2021-06-10T00:00:04.972910-04:00 p0109 XALT_LOGGING_pitzer: V:4 kind:run nb:60 syshost:pitzer key:run_strt_e9987873-873a-4a93-b5d0-5313b17496da crc:0xDAEC idx:5 value:39","unitem_bins/maxbin_ms40/max40.contig.tmp.abund39","-abund40","unitem_bins/maxbin_ms40/max40.contig.tmp.abund40","-abund41","unitem_bins/maxbin_ms40/max40.contig.tmp.abund41","-abund42","unitem_bins/maxbin_ms40/max40.contig.tmp.abund42","-abund43","unitem_bins/maxbin_ms40/max40.contig.tmp.abund43","-abund44","unitem_bins/maxbin_ms40/max40.contig.tmp.abund44","-abund45","unitem_bins/maxbin_ms40/max40.contig.tmp.abund45","-abund46","unitem_bins/maxbin_ms40/max40.contig.tmp.abund46","-abund47","unitem_bins
2021-06-10T00:00:04.975075-04:00 p0109 XALT_LOGGING_pitzer: V:4 kind:run nb:60 syshost:pitzer key:run_strt_e9987873-873a-4a93-b5d0-5313b17496da crc:0xDAEC idx:6 value:/maxbin_ms40/max40.contig.tmp.abund47","-abund48","unitem_bins/maxbin_ms40/max40.contig.tmp.abund48","-abund49","unitem_bins/maxbin_ms40/max40.contig.tmp.abund49","-abund50","unitem_bins/maxbin_ms40/max40.contig.tmp.abund50","-abund51","unitem_bins/maxbin_ms40/max40.contig.tmp.abund51","-abund52","unitem_bins/maxbin_ms40/max40.contig.tmp.abund52","-abund53","unitem_bins/maxbin_ms40/max40.contig.tmp.abund53","-abund54","unitem_bins/maxbin_ms40/max40.contig.tmp.abund54","-abund55","unitem_bins/maxbin_ms40/max
2021-06-10T00:00:04.977235-04:00 p0109 XALT_LOGGING_pitzer: V:4 kind:run nb:60 syshost:pitzer key:run_strt_e9987873-873a-4a93-b5d0-5313b17496da crc:0xDAEC idx:7 value:40.contig.tmp.abund55","-abund56","unitem_bins/maxbin_ms40/max40.contig.tmp.abund56","-abund57","unitem_bins/maxbin_ms40/max40.contig.tmp.abund57","-abund58","unitem_bins/maxbin_ms40/max40.contig.tmp.abund58","-abund59","unitem_bins/maxbin_ms40/max40.contig.tmp.abund59","-abund60","unitem_bins/maxbin_ms40/max40.contig.tmp.abund60","-abund61","unitem_bins/maxbin_ms40/max40.contig.tmp.abund61","-abund62","unitem_bins/maxbin_ms40/max40.contig.tmp.abund62","-abund63","unitem_bins/maxbin_ms40/max40.contig.tmp.ab
2021-06-10T00:00:04.979572-04:00 p0109 XALT_LOGGING_pitzer: V:4 kind:run nb:60 syshost:pitzer key:run_strt_e9987873-873a-4a93-b5d0-5313b17496da crc:0xDAEC idx:8 value:und63","-abund64","unitem_bins/maxbin_ms40/max40.contig.tmp.abund64","-abund65","unitem_bins/maxbin_ms40/max40.contig.tmp.abund65","-abund66","unitem_bins/maxbin_ms40/max40.contig.tmp.abund66","-abund67","unitem_bins/maxbin_ms40/max40.contig.tmp.abund67","-abund68","unitem_bins/maxbin_ms40/max40.contig.tmp.abund68","-abund69","unitem_bins/maxbin_ms40/max40.contig.tmp.abund69","-abund70","unitem_bins/maxbin_ms40/max40.contig.tmp.abund70","-abund71","unitem_bins/maxbin_ms40/max40.contig.tmp.abund71","-abund72
2021-06-10T00:00:04.981621-04:00 p0109 XALT_LOGGING_pitzer: V:4 kind:run nb:60 syshost:pitzer key:run_strt_e9987873-873a-4a93-b5d0-5313b17496da crc:0xDAEC idx:9 value:","unitem_bins/maxbin_ms40/max40.contig.tmp.abund72","-abund73","unitem_bins/maxbin_ms40/max40.contig.tmp.abund73","-abund74","unitem_bins/maxbin_ms40/max40.contig.tmp.abund74","-abund75","unitem_bins/maxbin_ms40/max40.contig.tmp.abund75","-abund76","unitem_bins/maxbin_ms40/max40.contig.tmp.abund76","-abund77","unitem_bins/maxbin_ms40/max40.contig.tmp.abund77","-abund78","unitem_bins/maxbin_ms40/max40.contig.tmp.abund78","-abund79","unitem_bins/maxbin_ms40/max40.contig.tmp.abund79","-abund80","unitem_bins/m
2021-06-10T00:00:04.983627-04:00 p0109 XALT_LOGGING_pitzer: V:4 kind:run nb:60 syshost:pitzer key:run_strt_e9987873-873a-4a93-b5d0-5313b17496da crc:0xDAEC idx:10 value:axbin_ms40/max40.contig.tmp.abund80","-abund81","unitem_bins/maxbin_ms40/max40.contig.tmp.abund81","-abund82","unitem_bins/maxbin_ms40/max40.contig.tmp.abund82","-abund83","unitem_bins/maxbin_ms40/max40.contig.tmp.abund83","-abund84","unitem_bins/maxbin_ms40/max40.contig.tmp.abund84","-abund85","unitem_bins/maxbin_ms40/max40.contig.tmp.abund85","-abund86","unitem_bins/maxbin_ms40/max40.contig.tmp.abund86","-abund87","unitem_bins/maxbin_ms40/max40.contig.tmp.abund87","-abund88","unitem_bins/maxbin_ms40/max40
2021-06-10T00:00:04.985646-04:00 p0109 XALT_LOGGING_pitzer: V:4 kind:run nb:60 syshost:pitzer key:run_strt_e9987873-873a-4a93-b5d0-5313b17496da crc:0xDAEC idx:11 value:.contig.tmp.abund88","-abund89","unitem_bins/maxbin_ms40/max40.contig.tmp.abund89","-abund90","unitem_bins/maxbin_ms40/max40.contig.tmp.abund90","-abund91","unitem_bins/maxbin_ms40/max40.contig.tmp.abund91","-abund92","unitem_bins/maxbin_ms40/max40.contig.tmp.abund92","-abund93","unitem_bins/maxbin_ms40/max40.contig.tmp.abund93","-abund94","unitem_bins/maxbin_ms40/max40.contig.tmp.abund94","-abund95","unitem_bins/maxbin_ms40/max40.contig.tmp.abund95","-abund96","unitem_bins/maxbin_ms40/max40.contig.tmp.abun
2021-06-10T00:00:04.987680-04:00 p0109 XALT_LOGGING_pitzer: V:4 kind:run nb:60 syshost:pitzer key:run_strt_e9987873-873a-4a93-b5d0-5313b17496da crc:0xDAEC idx:12 value:d96","-abund97","unitem_bins/maxbin_ms40/max40.contig.tmp.abund97","-abund98","unitem_bins/maxbin_ms40/max40.contig.tmp.abund98","-abund99","unitem_bins/maxbin_ms40/max40.contig.tmp.abund99","-abund100","unitem_bins/maxbin_ms40/max40.contig.tmp.abund100","-abund101","unitem_bins/maxbin_ms40/max40.contig.tmp.abund101","-abund102","unitem_bins/maxbin_ms40/max40.contig.tmp.abund102","-abund103","unitem_bins/maxbin_ms40/max40.contig.tmp.abund103","-abund104","unitem_bins/maxbin_ms40/max40.contig.tmp.abund104","
2021-06-10T00:00:04.989714-04:00 p0109 XALT_LOGGING_pitzer: V:4 kind:run nb:60 syshost:pitzer key:run_strt_e9987873-873a-4a93-b5d0-5313b17496da crc:0xDAEC idx:13 value:-abund105","unitem_bins/maxbin_ms40/max40.contig.tmp.abund105","-abund106","unitem_bins/maxbin_ms40/max40.contig.tmp.abund106","-abund107","unitem_bins/maxbin_ms40/max40.contig.tmp.abund107","-abund108","unitem_bins/maxbin_ms40/max40.contig.tmp.abund108","-abund109","unitem_bins/maxbin_ms40/max40.contig.tmp.abund109","-abund110","unitem_bins/maxbin_ms40/max40.contig.tmp.abund110","-abund111","unitem_bins/maxbin_ms40/max40.contig.tmp.abund111","-abund112","unitem_bins/maxbin_ms40/max40.contig.tmp.abund112","
2021-06-10T00:00:04.991641-04:00 p0109 XALT_LOGGING_pitzer: V:4 kind:run nb:60 syshost:pitzer key:run_strt_e9987873-873a-4a93-b5d0-5313b17496da crc:0xDAEC idx:14 value:-abund113","unitem_bins/maxbin_ms40/max40.contig.tmp.abund113","-abund114","unitem_bins/maxbin_ms40/max40.contig.tmp.abund114","-abund115","unitem_bins/maxbin_ms40/max40.contig.tmp.abund115","-abund116","unitem_bins/maxbin_ms40/max40.contig.tmp.abund116","-abund117","unitem_bins/maxbin_ms40/max40.contig.tmp.abund117","-abund118","unitem_bins/maxbin_ms40/max40.contig.tmp.abund118","-abund119","unitem_bins/maxbin_ms40/max40.contig.tmp.abund119","-abund120","unitem_bins/maxbin_ms40/max40.contig.tmp.abund120","
2021-06-10T00:00:04.993515-04:00 p0109 XALT_LOGGING_pitzer: V:4 kind:run nb:60 syshost:pitzer key:run_strt_e9987873-873a-4a93-b5d0-5313b17496da crc:0xDAEC idx:15 value:-abund121","unitem_bins/maxbin_ms40/max40.contig.tmp.abund121","-abund122","unitem_bins/maxbin_ms40/max40.contig.tmp.abund122","-abund123","unitem_bins/maxbin_ms40/max40.contig.tmp.abund123","-abund124","unitem_bins/maxbin_ms40/max40.contig.tmp.abund124","-abund125","unitem_bins/maxbin_ms40/max40.contig.tmp.abund125","-abund126","unitem_bins/maxbin_ms40/max40.contig.tmp.abund126","-abund127","unitem_bins/maxbin_ms40/max40.contig.tmp.abund127","-abund128","unitem_bins/maxbin_ms40/max40.contig.tmp.abund128","
2021-06-10T00:00:04.995360-04:00 p0109 XALT_LOGGING_pitzer: V:4 kind:run nb:60 syshost:pitzer key:run_strt_e9987873-873a-4a93-b5d0-5313b17496da crc:0xDAEC idx:16 value:-abund129","unitem_bins/maxbin_ms40/max40.contig.tmp.abund129","-abund130","unitem_bins/maxbin_ms40/max40.contig.tmp.abund130","-abund131","unitem_bins/maxbin_ms40/max40.contig.tmp.abund131","-abund132","unitem_bins/maxbin_ms40/max40.contig.tmp.abund132","-abund133","unitem_bins/maxbin_ms40/max40.contig.tmp.abund133","-abund134","unitem_bins/maxbin_ms40/max40.contig.tmp.abund134","-abund135","unitem_bins/maxbin_ms40/max40.contig.tmp.abund135","-abund136","unitem_bins/maxbin_ms40/max40.contig.tmp.abund136","
2021-06-10T00:00:04.997205-04:00 p0109 XALT_LOGGING_pitzer: V:4 kind:run nb:60 syshost:pitzer key:run_strt_e9987873-873a-4a93-b5d0-5313b17496da crc:0xDAEC idx:17 value:-abund137","unitem_bins/maxbin_ms40/max40.contig.tmp.abund137","-abund138","unitem_bins/maxbin_ms40/max40.contig.tmp.abund138","-abund139","unitem_bins/maxbin_ms40/max40.contig.tmp.abund139","-abund140","unitem_bins/maxbin_ms40/max40.contig.tmp.abund140","-abund141","unitem_bins/maxbin_ms40/max40.contig.tmp.abund141","-abund142","unitem_bins/maxbin_ms40/max40.contig.tmp.abund142","-abund143","unitem_bins/maxbin_ms40/max40.contig.tmp.abund143","-abund144","unitem_bins/maxbin_ms40/max40.contig.tmp.abund144","
2021-06-10T00:00:04.999157-04:00 p0109 XALT_LOGGING_pitzer: V:4 kind:run nb:60 syshost:pitzer key:run_strt_e9987873-873a-4a93-b5d0-5313b17496da crc:0xDAEC idx:18 value:-abund145","unitem_bins/maxbin_ms40/max40.contig.tmp.abund145","-abund146","unitem_bins/maxbin_ms40/max40.contig.tmp.abund146","-abund147","unitem_bins/maxbin_ms40/max40.contig.tmp.abund147","-abund148","unitem_bins/maxbin_ms40/max40.contig.tmp.abund148","-abund149","unitem_bins/maxbin_ms40/max40.contig.tmp.abund149","-abund150","unitem_bins/maxbin_ms40/max40.contig.tmp.abund150","-abund151","unitem_bins/maxbin_ms40/max40.contig.tmp.abund151","-abund152","unitem_bins/maxbin_ms40/max40.contig.tmp.abund152","
2021-06-10T00:00:05.001090-04:00 p0109 XALT_LOGGING_pitzer: V:4 kind:run nb:60 syshost:pitzer key:run_strt_e9987873-873a-4a93-b5d0-5313b17496da crc:0xDAEC idx:19 value:-abund153","unitem_bins/maxbin_ms40/max40.contig.tmp.abund153","-abund154","unitem_bins/maxbin_ms40/max40.contig.tmp.abund154","-abund155","unitem_bins/maxbin_ms40/max40.contig.tmp.abund155","-abund156","unitem_bins/maxbin_ms40/max40.contig.tmp.abund156","-abund157","unitem_bins/maxbin_ms40/max40.contig.tmp.abund157","-abund158","unitem_bins/maxbin_ms40/max40.contig.tmp.abund158","-abund159","unitem_bins/maxbin_ms40/max40.contig.tmp.abund159","-abund160","unitem_bins/maxbin_ms40/max40.contig.tmp.abund160","
2021-06-10T00:00:05.002901-04:00 p0109 XALT_LOGGING_pitzer: V:4 kind:run nb:60 syshost:pitzer key:run_strt_e9987873-873a-4a93-b5d0-5313b17496da crc:0xDAEC idx:20 value:-abund161","unitem_bins/maxbin_ms40/max40.contig.tmp.abund161","-abund162","unitem_bins/maxbin_ms40/max40.contig.tmp.abund162","-abund163","unitem_bins/maxbin_ms40/max40.contig.tmp.abund163","-abund164","unitem_bins/maxbin_ms40/max40.contig.tmp.abund164","-abund165","unitem_bins/maxbin_ms40/max40.contig.tmp.abund165","-abund166","unitem_bins/maxbin_ms40/max40.contig.tmp.abund166","-abund167","unitem_bins/maxbin_ms40/max40.contig.tmp.abund167","-abund168","unitem_bins/maxbin_ms40/max40.contig.tmp.abund168","
2021-06-10T00:00:05.004670-04:00 p0109 XALT_LOGGING_pitzer: V:4 kind:run nb:60 syshost:pitzer key:run_strt_e9987873-873a-4a93-b5d0-5313b17496da crc:0xDAEC idx:21 value:-abund169","unitem_bins/maxbin_ms40/max40.contig.tmp.abund169","-abund170","unitem_bins/maxbin_ms40/max40.contig.tmp.abund170","-abund171","unitem_bins/maxbin_ms40/max40.contig.tmp.abund171","-abund172","unitem_bins/maxbin_ms40/max40.contig.tmp.abund172","-abund173","unitem_bins/maxbin_ms40/max40.contig.tmp.abund173","-abund174","unitem_bins/maxbin_ms40/max40.contig.tmp.abund174","-abund175","unitem_bins/maxbin_ms40/max40.contig.tmp.abund175","-abund176","unitem_bins/maxbin_ms40/max40.contig.tmp.abund176","
2021-06-10T00:00:05.006415-04:00 p0109 XALT_LOGGING_pitzer: V:4 kind:run nb:60 syshost:pitzer key:run_strt_e9987873-873a-4a93-b5d0-5313b17496da crc:0xDAEC idx:22 value:-abund177","unitem_bins/maxbin_ms40/max40.contig.tmp.abund177","-abund178","unitem_bins/maxbin_ms40/max40.contig.tmp.abund178","-abund179","unitem_bins/maxbin_ms40/max40.contig.tmp.abund179","-abund180","unitem_bins/maxbin_ms40/max40.contig.tmp.abund180","-abund181","unitem_bins/maxbin_ms40/max40.contig.tmp.abund181","-abund182","unitem_bins/maxbin_ms40/max40.contig.tmp.abund182","-abund183","unitem_bins/maxbin_ms40/max40.contig.tmp.abund183","-abund184","unitem_bins/maxbin_ms40/max40.contig.tmp.abund184","
2021-06-10T00:00:05.008159-04:00 p0109 XALT_LOGGING_pitzer: V:4 kind:run nb:60 syshost:pitzer key:run_strt_e9987873-873a-4a93-b5d0-5313b17496da crc:0xDAEC idx:23 value:-abund185","unitem_bins/maxbin_ms40/max40.contig.tmp.abund185","-abund186","unitem_bins/maxbin_ms40/max40.contig.tmp.abund186","-abund187","unitem_bins/maxbin_ms40/max40.contig.tmp.abund187","-abund188","unitem_bins/maxbin_ms40/max40.contig.tmp.abund188","-abund189","unitem_bins/maxbin_ms40/max40.contig.tmp.abund189","-abund190","unitem_bins/maxbin_ms40/max40.contig.tmp.abund190","-abund191","unitem_bins/maxbin_ms40/max40.contig.tmp.abund191","-abund192","unitem_bins/maxbin_ms40/max40.contig.tmp.abund192","
2021-06-10T00:00:05.009887-04:00 p0109 XALT_LOGGING_pitzer: V:4 kind:run nb:60 syshost:pitzer key:run_strt_e9987873-873a-4a93-b5d0-5313b17496da crc:0xDAEC idx:24 value:-abund193","unitem_bins/maxbin_ms40/max40.contig.tmp.abund193","-abund194","unitem_bins/maxbin_ms40/max40.contig.tmp.abund194","-abund195","unitem_bins/maxbin_ms40/max40.contig.tmp.abund195","-abund196","unitem_bins/maxbin_ms40/max40.contig.tmp.abund196","-abund197","unitem_bins/maxbin_ms40/max40.contig.tmp.abund197","-abund198","unitem_bins/maxbin_ms40/max40.contig.tmp.abund198","-abund199","unitem_bins/maxbin_ms40/max40.contig.tmp.abund199","-abund200","unitem_bins/maxbin_ms40/max40.contig.tmp.abund200","
2021-06-10T00:00:05.011627-04:00 p0109 XALT_LOGGING_pitzer: V:4 kind:run nb:60 syshost:pitzer key:run_strt_e9987873-873a-4a93-b5d0-5313b17496da crc:0xDAEC idx:25 value:-abund201","unitem_bins/maxbin_ms40/max40.contig.tmp.abund201","-abund202","unitem_bins/maxbin_ms40/max40.contig.tmp.abund202","-abund203","unitem_bins/maxbin_ms40/max40.contig.tmp.abund203","-abund204","unitem_bins/maxbin_ms40/max40.contig.tmp.abund204","-abund205","unitem_bins/maxbin_ms40/max40.contig.tmp.abund205","-abund206","unitem_bins/maxbin_ms40/max40.contig.tmp.abund206","-abund207","unitem_bins/maxbin_ms40/max40.contig.tmp.abund207","-abund208","unitem_bins/maxbin_ms40/max40.contig.tmp.abund208","
2021-06-10T00:00:05.013271-04:00 p0109 XALT_LOGGING_pitzer: V:4 kind:run nb:60 syshost:pitzer key:run_strt_e9987873-873a-4a93-b5d0-5313b17496da crc:0xDAEC idx:26 value:-abund209","unitem_bins/maxbin_ms40/max40.contig.tmp.abund209","-abund210","unitem_bins/maxbin_ms40/max40.contig.tmp.abund210","-abund211","unitem_bins/maxbin_ms40/max40.contig.tmp.abund211","-abund212","unitem_bins/maxbin_ms40/max40.contig.tmp.abund212","-abund213","unitem_bins/maxbin_ms40/max40.contig.tmp.abund213","-abund214","unitem_bins/maxbin_ms40/max40.contig.tmp.abund214","-abund215","unitem_bins/maxbin_ms40/max40.contig.tmp.abund215","-abund216","unitem_bins/maxbin_ms40/max40.contig.tmp.abund216","
2021-06-10T00:00:05.014976-04:00 p0109 XALT_LOGGING_pitzer: V:4 kind:run nb:60 syshost:pitzer key:run_strt_e9987873-873a-4a93-b5d0-5313b17496da crc:0xDAEC idx:27 value:-abund217","unitem_bins/maxbin_ms40/max40.contig.tmp.abund217","-abund218","unitem_bins/maxbin_ms40/max40.contig.tmp.abund218","-abund219","unitem_bins/maxbin_ms40/max40.contig.tmp.abund219","-abund220","unitem_bins/maxbin_ms40/max40.contig.tmp.abund220","-abund221","unitem_bins/maxbin_ms40/max40.contig.tmp.abund221","-abund222","unitem_bins/maxbin_ms40/max40.contig.tmp.abund222","-abund223","unitem_bins/maxbin_ms40/max40.contig.tmp.abund223","-abund224","unitem_bins/maxbin_ms40/max40.contig.tmp.abund224","
2021-06-10T00:00:05.016624-04:00 p0109 XALT_LOGGING_pitzer: V:4 kind:run nb:60 syshost:pitzer key:run_strt_e9987873-873a-4a93-b5d0-5313b17496da crc:0xDAEC idx:28 value:-abund225","unitem_bins/maxbin_ms40/max40.contig.tmp.abund225","-abund226","unitem_bins/maxbin_ms40/max40.contig.tmp.abund226","-abund227","unitem_bins/maxbin_ms40/max40.contig.tmp.abund227","-abund228","unitem_bins/maxbin_ms40/max40.contig.tmp.abund228","-abund229","unitem_bins/maxbin_ms40/max40.contig.tmp.abund229","-abund230","unitem_bins/maxbin_ms40/max40.contig.tmp.abund230","-abund231","unitem_bins/maxbin_ms40/max40.contig.tmp.abund231","-abund232","unitem_bins/maxbin_ms40/max40.contig.tmp.abund232","
2021-06-10T00:00:05.018269-04:00 p0109 XALT_LOGGING_pitzer: V:4 kind:run nb:60 syshost:pitzer key:run_strt_e9987873-873a-4a93-b5d0-5313b17496da crc:0xDAEC idx:29 value:-abund233","unitem_bins/maxbin_ms40/max40.contig.tmp.abund233","-abund234","unitem_bins/maxbin_ms40/max40.contig.tmp.abund234","-abund235","unitem_bins/maxbin_ms40/max40.contig.tmp.abund235","-abund236","unitem_bins/maxbin_ms40/max40.contig.tmp.abund236","-abund237","unitem_bins/maxbin_ms40/max40.contig.tmp.abund237","-abund238","unitem_bins/maxbin_ms40/max40.contig.tmp.abund238","-abund239","unitem_bins/maxbin_ms40/max40.contig.tmp.abund239","-abund240","unitem_bins/maxbin_ms40/max40.contig.tmp.abund240","
2021-06-10T00:00:05.019892-04:00 p0109 XALT_LOGGING_pitzer: V:4 kind:run nb:60 syshost:pitzer key:run_strt_e9987873-873a-4a93-b5d0-5313b17496da crc:0xDAEC idx:30 value:-abund241","unitem_bins/maxbin_ms40/max40.contig.tmp.abund241","-abund242","unitem_bins/maxbin_ms40/max40.contig.tmp.abund242","-abund243","unitem_bins/maxbin_ms40/max40.contig.tmp.abund243","-abund244","unitem_bins/maxbin_ms40/max40.contig.tmp.abund244","-abund245","unitem_bins/maxbin_ms40/max40.contig.tmp.abund245","-abund246","unitem_bins/maxbin_ms40/max40.contig.tmp.abund246","-abund247","unitem_bins/maxbin_ms40/max40.contig.tmp.abund247","-abund248","unitem_bins/maxbin_ms40/max40.contig.tmp.abund248","
2021-06-10T00:00:05.021530-04:00 p0109 XALT_LOGGING_pitzer: V:4 kind:run nb:60 syshost:pitzer key:run_strt_e9987873-873a-4a93-b5d0-5313b17496da crc:0xDAEC idx:31 value:-abund249","unitem_bins/maxbin_ms40/max40.contig.tmp.abund249","-abund250","unitem_bins/maxbin_ms40/max40.contig.tmp.abund250","-abund251","unitem_bins/maxbin_ms40/max40.contig.tmp.abund251","-abund252","unitem_bins/maxbin_ms40/max40.contig.tmp.abund252","-abund253","unitem_bins/maxbin_ms40/max40.contig.tmp.abund253","-abund254","unitem_bins/maxbin_ms40/max40.contig.tmp.abund254","-abund255","unitem_bins/maxbin_ms40/max40.contig.tmp.abund255","-abund256","unitem_bins/maxbin_ms40/max40.contig.tmp.abund256","
[...]
2021-06-10T00:01:01.183110-04:00 p0141 XALT_LOGGING_pitzer: V:4 kind:run nb:60 syshost:pitzer key:run_strt_c565e405-5647-44cd-ae90-179ee964f0e0 crc:0xC378 idx:32 value:max40.contig.tmp.abund257","-abund258","unitem_bins/maxbin_ms40/max40.contig.tmp.abund258","-abund259","unitem_bins/maxbin_ms40/max40.contig.tmp.abund259","-abund260","unitem_bins/maxbin_ms40/max40.contig.tmp.abund260","-abund261","unitem_bins/maxbin_ms40/max40.contig.tmp.abund261","-abund262","unitem_bins/maxbin_ms40/max40.contig.tmp.abund262","-abund263","unitem_bins/maxbin_ms40/max40.contig.tmp.abund263","-abund264","unitem_bins/maxbin_ms40/max40.contig.tmp.abund264","-abund265","unitem_bins/maxbin_ms40/
2021-06-10T00:01:01.184601-04:00 p0141 XALT_LOGGING_pitzer: V:4 kind:run nb:60 syshost:pitzer key:run_strt_c565e405-5647-44cd-ae90-179ee964f0e0 crc:0xC378 idx:33 value:max40.contig.tmp.abund265","-abund266","unitem_bins/maxbin_ms40/max40.contig.tmp.abund266","-abund267","unitem_bins/maxbin_ms40/max40.contig.tmp.abund267","-abund268","unitem_bins/maxbin_ms40/max40.contig.tmp.abund268","-abund269","unitem_bins/maxbin_ms40/max40.contig.tmp.abund269","-abund270","unitem_bins/maxbin_ms40/max40.contig.tmp.abund270","-abund271","unitem_bins/maxbin_ms40/max40.contig.tmp.abund271","-abund272","unitem_bins/maxbin_ms40/max40.contig.tmp.abund272","-abund273","unitem_bins/maxbin_ms40/
2021-06-10T00:01:01.186129-04:00 p0141 XALT_LOGGING_pitzer: V:4 kind:run nb:60 syshost:pitzer key:run_strt_c565e405-5647-44cd-ae90-179ee964f0e0 crc:0xC378 idx:34 value:max40.contig.tmp.abund273","-abund274","unitem_bins/maxbin_ms40/max40.contig.tmp.abund274","-abund275","unitem_bins/maxbin_ms40/max40.contig.tmp.abund275","-abund276","unitem_bins/maxbin_ms40/max40.contig.tmp.abund276","-abund277","unitem_bins/maxbin_ms40/max40.contig.tmp.abund277","-abund278","unitem_bins/maxbin_ms40/max40.contig.tmp.abund278","-abund279","unitem_bins/maxbin_ms40/max40.contig.tmp.abund279","-abund280","unitem_bins/maxbin_ms40/max40.contig.tmp.abund280","-abund281","unitem_bins/maxbin_ms40/
2021-06-10T00:01:01.187646-04:00 p0141 XALT_LOGGING_pitzer: V:4 kind:run nb:60 syshost:pitzer key:run_strt_c565e405-5647-44cd-ae90-179ee964f0e0 crc:0xC378 idx:35 value:max40.contig.tmp.abund281","-abund282","unitem_bins/maxbin_ms40/max40.contig.tmp.abund282","-abund283","unitem_bins/maxbin_ms40/max40.contig.tmp.abund283","-abund284","unitem_bins/maxbin_ms40/max40.contig.tmp.abund284","-abund285","unitem_bins/maxbin_ms40/max40.contig.tmp.abund285","-abund286","unitem_bins/maxbin_ms40/max40.contig.tmp.abund286","-abund287","unitem_bins/maxbin_ms40/max40.contig.tmp.abund287","-abund288","unitem_bins/maxbin_ms40/max40.contig.tmp.abund288","-abund289","unitem_bins/maxbin_ms40/
2021-06-10T00:01:01.189107-04:00 p0141 XALT_LOGGING_pitzer: V:4 kind:run nb:60 syshost:pitzer key:run_strt_c565e405-5647-44cd-ae90-179ee964f0e0 crc:0xC378 idx:36 value:max40.contig.tmp.abund289","-abund290","unitem_bins/maxbin_ms40/max40.contig.tmp.abund290","-abund291","unitem_bins/maxbin_ms40/max40.contig.tmp.abund291","-abund292","unitem_bins/maxbin_ms40/max40.contig.tmp.abund292","-abund293","unitem_bins/maxbin_ms40/max40.contig.tmp.abund293","-abund294","unitem_bins/maxbin_ms40/max40.contig.tmp.abund294","-abund295","unitem_bins/maxbin_ms40/max40.contig.tmp.abund295","-abund296","unitem_bins/maxbin_ms40/max40.contig.tmp.abund296","-abund297","unitem_bins/maxbin_ms40/
2021-06-10T00:01:01.190562-04:00 p0141 XALT_LOGGING_pitzer: V:4 kind:run nb:60 syshost:pitzer key:run_strt_c565e405-5647-44cd-ae90-179ee964f0e0 crc:0xC378 idx:37 value:max40.contig.tmp.abund297","-abund298","unitem_bins/maxbin_ms40/max40.contig.tmp.abund298","-abund299","unitem_bins/maxbin_ms40/max40.contig.tmp.abund299","-abund300","unitem_bins/maxbin_ms40/max40.contig.tmp.abund300","-abund301","unitem_bins/maxbin_ms40/max40.contig.tmp.abund301","-abund302","unitem_bins/maxbin_ms40/max40.contig.tmp.abund302","-abund303","unitem_bins/maxbin_ms40/max40.contig.tmp.abund303","-abund304","unitem_bins/maxbin_ms40/max40.contig.tmp.abund304","-abund305","unitem_bins/maxbin_ms40/
2021-06-10T00:01:01.191933-04:00 p0141 XALT_LOGGING_pitzer: V:4 kind:run nb:60 syshost:pitzer key:run_strt_c565e405-5647-44cd-ae90-179ee964f0e0 crc:0xC378 idx:38 value:max40.contig.tmp.abund305","-abund306","unitem_bins/maxbin_ms40/max40.contig.tmp.abund306","-abund307","unitem_bins/maxbin_ms40/max40.contig.tmp.abund307","-abund308","unitem_bins/maxbin_ms40/max40.contig.tmp.abund308","-abund309","unitem_bins/maxbin_ms40/max40.contig.tmp.abund309","-abund310","unitem_bins/maxbin_ms40/max40.contig.tmp.abund310","-abund311","unitem_bins/maxbin_ms40/max40.contig.tmp.abund311","-abund312","unitem_bins/maxbin_ms40/max40.contig.tmp.abund312","-abund313","unitem_bins/maxbin_ms40/
2021-06-10T00:01:01.193300-04:00 p0141 XALT_LOGGING_pitzer: V:4 kind:run nb:60 syshost:pitzer key:run_strt_c565e405-5647-44cd-ae90-179ee964f0e0 crc:0xC378 idx:39 value:max40.contig.tmp.abund313","-abund314","unitem_bins/maxbin_ms40/max40.contig.tmp.abund314","-abund315","unitem_bins/maxbin_ms40/max40.contig.tmp.abund315","-abund316","unitem_bins/maxbin_ms40/max40.contig.tmp.abund316","-abund317","unitem_bins/maxbin_ms40/max40.contig.tmp.abund317","-abund318","unitem_bins/maxbin_ms40/max40.contig.tmp.abund318","-abund319","unitem_bins/maxbin_ms40/max40.contig.tmp.abund319","-abund320","unitem_bins/maxbin_ms40/max40.contig.tmp.abund320","-abund321","unitem_bins/maxbin_ms40/
2021-06-10T00:01:01.194746-04:00 p0141 XALT_LOGGING_pitzer: V:4 kind:run nb:60 syshost:pitzer key:run_strt_c565e405-5647-44cd-ae90-179ee964f0e0 crc:0xC378 idx:40 value:max40.contig.tmp.abund321","-abund322","unitem_bins/maxbin_ms40/max40.contig.tmp.abund322","-abund323","unitem_bins/maxbin_ms40/max40.contig.tmp.abund323","-abund324","unitem_bins/maxbin_ms40/max40.contig.tmp.abund324","-abund325","unitem_bins/maxbin_ms40/max40.contig.tmp.abund325","-abund326","unitem_bins/maxbin_ms40/max40.contig.tmp.abund326","-abund327","unitem_bins/maxbin_ms40/max40.contig.tmp.abund327","-abund328","unitem_bins/maxbin_ms40/max40.contig.tmp.abund328","-abund329","unitem_bins/maxbin_ms40/
2021-06-10T00:01:01.196196-04:00 p0141 XALT_LOGGING_pitzer: V:4 kind:run nb:60 syshost:pitzer key:run_strt_c565e405-5647-44cd-ae90-179ee964f0e0 crc:0xC378 idx:41 value:max40.contig.tmp.abund329","-abund330","unitem_bins/maxbin_ms40/max40.contig.tmp.abund330","-abund331","unitem_bins/maxbin_ms40/max40.contig.tmp.abund331","-abund332","unitem_bins/maxbin_ms40/max40.contig.tmp.abund332","-abund333","unitem_bins/maxbin_ms40/max40.contig.tmp.abund333","-abund334","unitem_bins/maxbin_ms40/max40.contig.tmp.abund334","-abund335","unitem_bins/maxbin_ms40/max40.contig.tmp.abund335","-abund336","unitem_bins/maxbin_ms40/max40.contig.tmp.abund336","-abund337","unitem_bins/maxbin_ms40/
2021-06-10T00:01:01.197588-04:00 p0141 XALT_LOGGING_pitzer: V:4 kind:run nb:60 syshost:pitzer key:run_strt_c565e405-5647-44cd-ae90-179ee964f0e0 crc:0xC378 idx:42 value:max40.contig.tmp.abund337","-abund338","unitem_bins/maxbin_ms40/max40.contig.tmp.abund338","-abund339","unitem_bins/maxbin_ms40/max40.contig.tmp.abund339","-abund340","unitem_bins/maxbin_ms40/max40.contig.tmp.abund340","-abund341","unitem_bins/maxbin_ms40/max40.contig.tmp.abund341","-abund342","unitem_bins/maxbin_ms40/max40.contig.tmp.abund342","-abund343","unitem_bins/maxbin_ms40/max40.contig.tmp.abund343","-abund344","unitem_bins/maxbin_ms40/max40.contig.tmp.abund344","-seed","unitem_bins/maxbin_ms40/max4
2021-06-10T00:01:01.198960-04:00 p0141 XALT_LOGGING_pitzer: V:4 kind:run nb:60 syshost:pitzer key:run_strt_c565e405-5647-44cd-ae90-179ee964f0e0 crc:0xC378 idx:43 value:0.0129.out.seed","-out","unitem_bins/maxbin_ms40/max40.0129.out","-min_contig_length","2500","-thread","20"],"hash_id":"50fd3fa68a3a7ce869d101d912d30325f22f6906","libA":[["/usr/lib64/ld-2.17.so","0"],["/usr/lib64/libpthread-2.17.so","0"],["/fs/project/PAS1117/Cronin/Bioinformatic_tools/miniconda3/envs/unitem/lib/libstdc++.so.6.0.24","0"],["/usr/lib64/libm-2.17.so","0"],["/fs/project/PAS1117/Cronin/Bioinformatic_tools/miniconda3/envs/unitem/lib/libgcc_s.so.1","0"],["/usr/lib64/libc-2.17.so","0"],["/usr/lib64
2021-06-10T00:01:01.200378-04:00 p0141 XALT_LOGGING_pitzer: V:4 kind:run nb:60 syshost:pitzer key:run_strt_c565e405-5647-44cd-ae90-179ee964f0e0 crc:0xC378 idx:44 value:/libdl-2.17.so","0"],["/apps/xalt/2.10.10/lib64/libuuid.so.1.3.0","0"]],"ptA":[{"cmd_name":"perl","cmd_path":"/fs/project/PAS1117/Cronin/Bioinformatic_tools/miniconda3/envs/unitem/bin/perl","pid":212447,"cmdlineA":["perl","/users/PAS1117/osu9433/ProjectDir_Cronin/Bioinformatic_tools/miniconda3/envs/unitem/bin/run_MaxBin.pl","-min_contig_length","2500","-thread","20","-markerset","40","-contig","/fs/project/PAS1117/SCI/Mohamed2020/04_MAGs/Readmapping_for_MAGs/Dereplicated_combined_mouse_assemblies/Mouse23_de
2021-06-10T00:01:01.201902-04:00 p0141 XALT_LOGGING_pitzer: V:4 kind:run nb:60 syshost:pitzer key:run_strt_c565e405-5647-44cd-ae90-179ee964f0e0 crc:0xC378 idx:45 value:rep_combined_contigs.fna","-out","unitem_bins/maxbin_ms40/max40","-abund_list","unitem_bins/maxbin_ms40/coverage_files/abund_files.lst"]},{"cmd_name":"unitem","cmd_path":"/fs/project/PAS1117/Cronin/Bioinformatic_tools/miniconda3/envs/unitem/bin/python2.7","pid":179045,"cmdlineA":["/users/PAS1117/osu9433/ProjectDir_Cronin/Bioinformatic_tools/miniconda3/envs/unitem/bin/python","/users/PAS1117/osu9433/ProjectDir_Cronin/Bioinformatic_tools/miniconda3/envs/unitem/bin/unitem","bin","--bs","--mb2","--max40","--max
2021-06-10T00:01:01.203264-04:00 p0141 XALT_LOGGING_pitzer: V:4 kind:run nb:60 syshost:pitzer key:run_strt_c565e405-5647-44cd-ae90-179ee964f0e0 crc:0xC378 idx:46 value:107","--mb_verysensitive","--mb_sensitive","--mb_specific","--mb_veryspecific","--mb_superspecific","/fs/project/PAS1117/SCI/Mohamed2020/04_MAGs/Readmapping_for_MAGs/Dereplicated_combined_mouse_assemblies/Mouse23_derep_combined_contigs.fna","unitem_bins","--bam_files","/fs/scratch/Sullivan_Lab/Mohamed/SCI/Readmapping_coverm/Mouse_23/Filtered_Mouse23_derep_combined_contigs.fna.PLATE1_R1_A01_clean.fastq.gz.bam","/fs/scratch/Sullivan_Lab/Mohamed/SCI/Readmapping_coverm/Mouse_23/Filtered_Mouse23_derep_combined_c
2021-06-10T00:01:01.204604-04:00 p0141 XALT_LOGGING_pitzer: V:4 kind:run nb:60 syshost:pitzer key:run_strt_c565e405-5647-44cd-ae90-179ee964f0e0 crc:0xC378 idx:47 value:ontigs.fna.PLATE1_R1_A02_clean.fastq.gz.bam","/fs/scratch/Sullivan_Lab/Mohamed/SCI/Readmapping_coverm/Mouse_23/Filtered_Mouse23_derep_combined_contigs.fna.PLATE1_R1_A03_clean.fastq.gz.bam","/fs/scratch/Sullivan_Lab/Mohamed/SCI/Readmapping_coverm/Mouse_23/Filtered_Mouse23_derep_combined_contigs.fna.PLATE1_R1_A04_clean.fastq.gz.bam","/fs/scratch/Sullivan_Lab/Mohamed/SCI/Readmapping_coverm/Mouse_23/Filtered_Mouse23_derep_combined_contigs.fna.PLATE1_R1_A05_clean.fastq.gz.bam","/fs/scratch/Sullivan_Lab/Mohamed/S
2021-06-10T00:01:01.205903-04:00 p0141 XALT_LOGGING_pitzer: V:4 kind:run nb:60 syshost:pitzer key:run_strt_c565e405-5647-44cd-ae90-179ee964f0e0 crc:0xC378 idx:48 value:CI/Readmapping_coverm/Mouse_23/Filtered_Mouse23_derep_combined_contigs.fna.PLATE1_R1_A06_clean.fastq.gz.bam","/fs/scratch/Sullivan_Lab/Mohamed/SCI/Readmapping_coverm/Mouse_23/Filtered_Mouse23_derep_combined_contigs.fna.PLATE1_R1_A07_clean.fastq.gz.bam","/fs/scratch/Sullivan_Lab/Mohamed/SCI/Readmapping_coverm/Mouse_23/Filtered_Mouse23_derep_combined_contigs.fna.PLATE1_R1_A08_clean.fastq.gz.bam","/fs/scratch/Sullivan_Lab/Mohamed/SCI/Readmapping_coverm/Mouse_23/Filtered_Mouse23_derep_combined_contigs.fna.PLATE
2021-06-10T00:01:01.207293-04:00 p0141 XALT_LOGGING_pitzer: V:4 kind:run nb:60 syshost:pitzer key:run_strt_c565e405-5647-44cd-ae90-179ee964f0e0 crc:0xC378 idx:49 value:1_R1_A09_clean.fastq.gz.bam","/fs/scratch/Sullivan_Lab/Mohamed/SCI/Readmapping_coverm/Mouse_23/Filtered_Mouse23_derep_combined_contigs.fna.PLATE1_R1_A10_clean.fastq.gz.bam","/fs/scratch/Sullivan_Lab/Mohamed/SCI/Readmapping_coverm/Mouse_23/Filtered_Mouse23_derep_combined_contigs.fna.PLATE1_R1_A11_clean.fastq.gz.bam","/fs/scratch/Sullivan_Lab/Mohamed/SCI/Readmapping_coverm/Mouse_23/Filtered_Mouse23_derep_combined_contigs.fna.PLATE1_R1_A12_clean.fastq.gz.bam","/fs/scratch/Sullivan_Lab/Mohamed/SCI/Readmapping_c
2021-06-10T00:01:01.208608-04:00 p0141 XALT_LOGGING_pitzer: V:4 kind:run nb:60 syshost:pitzer key:run_strt_c565e405-5647-44cd-ae90-179ee964f0e0 crc:0xC378 idx:50 value:overm/Mouse_23/Filtered_Mouse23_derep_combined_contigs.fna.PLATE1_R1_B01_clean.fastq.gz.bam","/fs/scratch/Sullivan_Lab/Mohamed/SCI/Readmapping_coverm/Mouse_23/Filtered_Mouse23_derep_combined_contigs.fna.PLATE1_R1_B02_clean.fastq.gz.bam","/fs/scratch/Sullivan_Lab/Mohamed/SCI/Readmapping_coverm/Mouse_23/Filtered_Mouse23_derep_combined_contigs.fna.PLATE1_R1_B03_clean.fastq.gz.bam","/fs/scratch/Sullivan_Lab/Mohamed/SCI/Readmapping_coverm/Mouse_23/Filtered_Mouse23_derep_combined_contigs.fna.PLATE1_R1_B04_clean.f
2021-06-10T00:01:01.209908-04:00 p0141 XALT_LOGGING_pitzer: V:4 kind:run nb:60 syshost:pitzer key:run_strt_c565e405-5647-44cd-ae90-179ee964f0e0 crc:0xC378 idx:51 value:astq.gz.bam","/fs/scratch/Sullivan_Lab/Mohamed/SCI/Readmapping_coverm/Mouse_23/Filtered_Mouse23_derep_combined_contigs.fna.PLATE1_R1_B05_clean.fastq.gz.bam","/fs/scratch/Sullivan_Lab/Mohamed/SCI/Readmapping_coverm/Mouse_23/Filtered_Mouse23_derep_combined_contigs.fna.PLATE1_R1_B06_clean.fastq.gz.bam","/fs/scratch/Sullivan_Lab/Mohamed/SCI/Readmapping_coverm/Mouse_23/Filtered_Mouse23_derep_combined_contigs.fna.PLATE1_R1_B07_clean.fastq.gz.bam","/fs/scratch/Sullivan_Lab/Mohamed/SCI/Readmapping_coverm/Mouse_23/F
2021-06-10T00:01:01.211218-04:00 p0141 XALT_LOGGING_pitzer: V:4 kind:run nb:60 syshost:pitzer key:run_strt_c565e405-5647-44cd-ae90-179ee964f0e0 crc:0xC378 idx:52 value:iltered_Mouse23_derep_combined_contigs.fna.PLATE1_R1_B08_clean.fastq.gz.bam","/fs/scratch/Sullivan_Lab/Mohamed/SCI/Readmapping_coverm/Mouse_23/Filtered_Mouse23_derep_combined_contigs.fna.PLATE1_R1_B09_clean.fastq.gz.bam","/fs/scratch/Sullivan_Lab/Mohamed/SCI/Readmapping_coverm/Mouse_23/Filtered_Mouse23_derep_combined_contigs.fna.PLATE1_R1_B10_clean.fastq.gz.bam","/fs/scratch/Sullivan_Lab/Mohamed/SCI/Readmapping_coverm/Mouse_23/Filtered_Mouse23_derep_combined_contigs.fna.PLATE1_R1_B11_clean.fastq.gz.bam","/f
2021-06-10T00:01:01.212596-04:00 p0141 XALT_LOGGING_pitzer: V:4 kind:run nb:60 syshost:pitzer key:run_strt_c565e405-5647-44cd-ae90-179ee964f0e0 crc:0xC378 idx:53 value:s/scratch/Sullivan_Lab/Mohamed/SCI/Readmapping_coverm/Mouse_23/Filtered_Mouse23_derep_combined_contigs.fna.PLATE1_R1_B12_clean.fastq.gz.bam","/fs/scratch/Sullivan_Lab/Mohamed/SCI/Readmapping_coverm/Mouse_23/Filtered_Mouse23_derep_combined_contigs.fna.PLATE1_R1_C01_clean.fastq.gz.bam","/fs/scratch/Sullivan_Lab/Mohamed/SCI/Readmapping_coverm/Mouse_23/Filtered_M"]},{"cmd_name":"slurm_script","cmd_path":"/usr/bin/bash","pid":179009,"cmdlineA":["/bin/bash","/var/spool/slurmd/job4308591/slurm_script"]}],"envT":{"
2021-06-10T00:01:01.213972-04:00 p0141 XALT_LOGGING_pitzer: V:4 kind:run nb:60 syshost:pitzer key:run_strt_c565e405-5647-44cd-ae90-179ee964f0e0 crc:0xC378 idx:54 value:LD_LIBRARY_PATH":"/opt/mvapich2/intel/19.0/2.3.3/lib:/apps/gnu/8.4.0/lib64:/apps/gnu/8.4.0/lib:/opt/intel/19.0.5/debugger_2019/libipt/intel64/lib:/opt/intel/19.0.5/compilers_and_libraries_2019/linux/lib/intel64_lin:/opt/intel/19.0.5/compilers_and_libraries_2019/linux/daal/lib/intel64_lin:/opt/intel/19.0.5/compilers_and_libraries_2019/linux/ipp/lib/intel64_lin:/opt/intel/19.0.5/compilers_and_libraries_2019/linux/mkl/lib/intel64_lin:/opt/intel/19.0.5/compilers_and_libraries_2019/linux/tbb/lib/intel64_lin/gcc4
2021-06-10T00:01:01.215227-04:00 p0141 XALT_LOGGING_pitzer: V:4 kind:run nb:60 syshost:pitzer key:run_strt_c565e405-5647-44cd-ae90-179ee964f0e0 crc:0xC378 idx:55 value:.4","PATH":"/users/PAS1117/osu9433/ProjectDir_Cronin/Bioinformatic_tools/miniconda3/envs/unitem/bin:/users/PAS1117/osu9433/ProjectDir_Cronin/Bioinformatic_tools/miniconda3/condabin:/apps/xalt/xalt/bin:/opt/mvapich2/intel/19.0/2.3.3/bin:/apps/gnu/8.4.0/bin:/opt/intel/19.0.5/itac_latest/bin:/opt/intel/19.0.5/advisor/bin64:/opt/intel/19.0.5/vtune_amplifier/bin64:/opt/intel/19.0.5/inspector_2019/bin64:/opt/intel/19.0.5/compilers_and_libraries_2019/linux/bin/intel64:/apps/software_usage:/usr/lib64/qt-3.3/bin:/op
2021-06-10T00:01:01.216508-04:00 p0141 XALT_LOGGING_pitzer: V:4 kind:run nb:60 syshost:pitzer key:run_strt_c565e405-5647-44cd-ae90-179ee964f0e0 crc:0xC378 idx:56 value:t/osc/bin:/opt/moab/bin:/usr/local/bin:/bin:/usr/bin:/usr/local/sbin:/usr/sbin:/opt/ibutils/bin:/opt/ddn/ime/bin:/opt/puppetlabs/bin","_LMFILES_":"/apps/lmodfiles/Core/xalt/latest.lua:/apps/lmodfiles/Core/gcc-compatibility/8.4.0.lua:/apps/lmodfiles/Core/intel/19.0.5.lua:/apps/lmodfiles/Compiler/intel/19.0/mvapich2/2.3.3.lua:/apps/lmodfiles/Core/modules/sp2020.lua","MODULEPATH":"/apps/lmodfiles/MPI/intel/19.0/mvapich2/2.3:/apps/lmodfiles/Compiler/intel/19.0:/apps/lmodfiles/Linux:/apps/lmodfiles/Core:/apps/lm
2021-06-10T00:01:01.217777-04:00 p0141 XALT_LOGGING_pitzer: V:4 kind:run nb:60 syshost:pitzer key:run_strt_c565e405-5647-44cd-ae90-179ee964f0e0 crc:0xC378 idx:57 value:od/lmod/modulefiles/Core","LOADEDMODULES":"xalt/latest:gcc-compatibility/8.4.0:intel/19.0.5:mvapich2/2.3.3:modules/sp2020","MV2_USE_RDMA_CM":"0","MKL_THREADING_LAYER":"INTEL"},"userT":{"syshost":"pitzer","run_uuid":"c565e405-5647-44cd-ae90-179ee964f0e0","exec_path":"/fs/project/PAS1117/Cronin/Bioinformatic_tools/miniconda3/envs/unitem/opt/MaxBin-2.2.4/src/MaxBin","exec_type":"binary","cwd":"/fs/scratch/Sullivan_Lab/Mohamed/SCI/MAGs/Mouse_23/Binning","currentEpoch":"1623297661.104459","start_date":"Thu Jun 1
2021-06-10T00:01:01.219175-04:00 p0141 XALT_LOGGING_pitzer: V:4 kind:run nb:60 syshost:pitzer key:run_strt_c565e405-5647-44cd-ae90-179ee964f0e0 crc:0xC378 idx:58 value:0 00:01:01 2021","user":"mohssen","execModify":"Sun Jul  8 00:03:50 2018","scheduler":"SLURM","account":"pas1117","job_id":"4308591","queue":"serial-40core","submit_host":"pitzer-login03.hpc.osc.edu"},"userDT":{"start_time":1623297661.0977,"end_time":0.0000,"run_time":0.0000,"probability":1.0000,"num_tasks":1.0000,"num_gpus":0.0000,"exec_epoch":1623297661.0000,"num_threads":1.0000,"num_cores":1.0000,"num_nodes":1.0000},"xaltLinkT":{},"XALT_measureT":{"04_WalkProcTree__":0.0003,"03_BuildEnvT_____":0.0007,"05
2021-06-10T00:01:01.220882-04:00 p0141 XALT_LOGGING_pitzer: V:4 kind:run nb:60 syshost:pitzer key:run_strt_c565e405-5647-44cd-ae90-179ee964f0e0 crc:0xC378 idx:59 value:_Build_RecordT_":0.0000,"01_BuildUserT____":0.0001,"02_Sha1_exec_____":0.0158,"06_ParseProcMaps_":0.0026,"07_GPU_Setup_____":0.0000,"08____total______":0.0243},"XALT_qaT":{"XALT_GIT_VERSION":"xalt-2.10.10-3-g42b3703","XALT_FILE_PREFIX":"USE_HOME"}}
2021-06-10T00:01:02.942834-04:00 p0196 XALT_LOGGING_pitzer: V:4 kind:run nb:13 syshost:pitzer key:run_fini_b3e9e746-3dbd-4199-94f2-c74a27245acb crc:0x9123 idx:0 value:{"crc":"0x9123","cmdlineA":["/users/PCS0202/bgs0373/PROGRAM/OpenMolcas-master/build/bin/mclr.exe"],"hash_id":"ef559987eb6a7020c0cd236a4beac6fbcc307131","libA":[["/usr/lib64/ld-2.17.so","0"],["/opt/intel/17.0.7/compilers_and_libraries_2017.7.259/linux/mpi/intel64/lib/libmpifort.so.12.0","0"],["/opt/intel/17.0.7/compilers_and_libraries_2017.7.259/linux/mpi/intel64/lib/release_mt/libmpi.so.12.0","0"],["/usr/lib64/libdl-2.17.so","0"],["/usr/lib64/librt-2.17.so","0"],["/usr/lib64/libpthread-2.17.so","0"],["/apps
